/*--------------------------------*- C++ -*----------------------------------*\
| =========                 |                                                 |
| \\      /  F ield         | OpenFOAM: The Open Source CFD Toolbox           |
|  \\    /   O peration     | Version:  v2006                                 |
|   \\  /    A nd           | Website:  www.openfoam.com                      |
|    \\/     M anipulation  |                                                 |
\*---------------------------------------------------------------------------*/
FoamFile
{
    version     2.0;
    format      ascii;
    class       volScalarField;
    location    "9203";
    object      nut;
}
// * * * * * * * * * * * * * * * * * * * * * * * * * * * * * * * * * * * * * //

dimensions      [0 2 -1 0 0 0 0];


internalField   nonuniform List<scalar> 
184860
(
1.84819e-08
4.4073e-08
1.5952e-07
6.31919e-07
3.84634e-06
7.38735e-05
1.84934e-08
4.41377e-08
1.5985e-07
6.33227e-07
3.85607e-06
7.39308e-05
1.85177e-08
4.4276e-08
1.60554e-07
6.36002e-07
3.8764e-06
7.40462e-05
1.8556e-08
4.44974e-08
1.61678e-07
6.40411e-07
3.90813e-06
7.42182e-05
1.86099e-08
4.48123e-08
1.63273e-07
6.46626e-07
3.95195e-06
7.44428e-05
1.86806e-08
4.52313e-08
1.6539e-07
6.54818e-07
4.00837e-06
7.47133e-05
1.87696e-08
4.5766e-08
1.68082e-07
6.65155e-07
4.07764e-06
7.502e-05
1.8878e-08
4.64282e-08
1.71404e-07
6.77794e-07
4.1597e-06
7.53506e-05
1.9007e-08
4.72299e-08
1.75405e-07
6.92865e-07
4.25401e-06
7.56896e-05
1.91577e-08
4.81828e-08
1.80133e-07
7.10465e-07
4.3595e-06
7.60188e-05
1.93306e-08
4.92983e-08
1.85624e-07
7.30632e-07
4.47437e-06
7.63171e-05
1.95262e-08
5.05859e-08
1.91899e-07
7.53327e-07
4.59603e-06
7.656e-05
1.97444e-08
5.20532e-08
1.98955e-07
7.784e-07
4.72089e-06
7.67203e-05
1.99843e-08
5.3704e-08
2.06757e-07
8.05557e-07
4.84434e-06
7.67671e-05
2.02447e-08
5.55369e-08
2.15221e-07
8.3432e-07
4.96063e-06
7.6667e-05
2.0523e-08
5.75435e-08
2.24206e-07
8.63986e-07
5.06289e-06
7.63823e-05
2.08157e-08
5.97058e-08
2.33494e-07
8.93583e-07
5.14327e-06
7.58724e-05
2.11179e-08
6.19936e-08
2.42775e-07
9.21843e-07
5.193e-06
7.50942e-05
2.14232e-08
6.43623e-08
2.51635e-07
9.47178e-07
5.2031e-06
7.40018e-05
2.17234e-08
6.67502e-08
2.5955e-07
9.67696e-07
5.16449e-06
7.25469e-05
2.20087e-08
6.90772e-08
2.65889e-07
9.8125e-07
5.06883e-06
7.06801e-05
2.22672e-08
7.12455e-08
2.69928e-07
9.85544e-07
4.90935e-06
6.83521e-05
2.24858e-08
7.31422e-08
2.70912e-07
9.78333e-07
4.68173e-06
6.55153e-05
2.26497e-08
7.46102e-08
2.68194e-07
9.57578e-07
4.38509e-06
6.21267e-05
2.27439e-08
7.54758e-08
2.61275e-07
9.21821e-07
4.02282e-06
5.81524e-05
2.27538e-08
7.55638e-08
2.49903e-07
8.70546e-07
3.60329e-06
5.3573e-05
2.26664e-08
7.47185e-08
2.3417e-07
8.04441e-07
3.13998e-06
4.83944e-05
2.24718e-08
7.28185e-08
2.14571e-07
7.25643e-07
2.65107e-06
4.26548e-05
2.2165e-08
6.98163e-08
1.92017e-07
6.36613e-07
2.1609e-06
3.64431e-05
2.17473e-08
6.57539e-08
1.67749e-07
5.4114e-07
1.69475e-06
2.99153e-05
2.12273e-08
6.07765e-08
1.42987e-07
4.44537e-07
1.27556e-06
2.33139e-05
2.06211e-08
5.5127e-08
1.19e-07
3.52371e-07
9.20479e-07
1.70034e-05
1.99521e-08
4.91211e-08
9.69262e-08
2.69587e-07
6.38312e-07
1.14258e-05
1.92493e-08
4.31044e-08
7.76097e-08
1.99683e-07
4.28669e-07
6.97078e-06
1.85445e-08
3.74023e-08
6.15093e-08
1.44213e-07
2.83357e-07
3.83378e-06
1.78694e-08
3.2275e-08
4.86906e-08
1.02822e-07
1.88192e-07
1.92597e-06
1.72525e-08
2.78899e-08
3.89021e-08
7.37396e-08
1.25532e-07
8.92125e-07
1.67154e-08
2.43172e-08
3.16977e-08
5.43114e-08
8.46016e-08
4.0581e-07
1.62715e-08
2.15451e-08
2.65622e-08
4.12283e-08
5.83394e-08
1.89438e-07
1.59243e-08
1.95077e-08
2.29151e-08
3.23807e-08
4.19214e-08
9.62863e-08
1.56685e-08
1.80733e-08
2.03562e-08
2.64235e-08
3.19924e-08
5.5669e-08
1.54917e-08
1.70645e-08
1.85976e-08
2.24926e-08
2.57603e-08
3.65924e-08
1.53775e-08
1.63691e-08
1.73874e-08
1.98894e-08
2.17766e-08
2.69586e-08
1.53092e-08
1.59074e-08
1.65626e-08
1.81862e-08
1.92704e-08
2.19512e-08
1.52723e-08
1.56155e-08
1.60181e-08
1.70655e-08
1.77022e-08
1.91436e-08
1.52561e-08
1.54403e-08
1.56773e-08
1.63255e-08
1.6695e-08
1.74745e-08
1.52487e-08
1.53399e-08
1.5476e-08
1.58488e-08
1.60787e-08
1.65098e-08
1.52448e-08
1.52867e-08
1.53616e-08
1.55659e-08
1.57032e-08
1.59466e-08
1.52428e-08
1.52619e-08
1.52994e-08
1.54057e-08
1.54782e-08
1.5621e-08
1.5242e-08
1.52506e-08
1.52677e-08
1.53196e-08
1.53578e-08
1.54639e-08
1.52418e-08
1.52458e-08
1.52533e-08
1.52771e-08
1.52954e-08
1.53565e-08
1.52417e-08
1.52441e-08
1.52475e-08
1.52581e-08
1.52662e-08
1.52963e-08
1.52417e-08
1.52436e-08
1.52452e-08
1.52502e-08
1.52531e-08
1.52635e-08
1.52417e-08
1.52435e-08
1.52444e-08
1.52469e-08
1.52479e-08
1.52518e-08
1.52417e-08
1.52435e-08
1.5244e-08
1.52457e-08
1.52458e-08
1.52461e-08
1.52417e-08
1.52435e-08
1.52439e-08
1.52452e-08
1.5245e-08
1.52442e-08
1.52417e-08
1.52434e-08
1.52439e-08
1.5245e-08
1.52447e-08
1.52437e-08
1.52417e-08
1.52434e-08
1.52438e-08
1.52449e-08
1.52446e-08
1.52434e-08
1.52417e-08
1.52434e-08
1.52438e-08
1.52448e-08
1.52445e-08
1.52433e-08
1.52417e-08
1.52434e-08
1.52438e-08
1.52448e-08
1.52445e-08
1.52432e-08
1.52417e-08
1.52433e-08
1.52437e-08
1.52447e-08
1.52444e-08
1.52432e-08
1.52416e-08
1.52433e-08
1.52437e-08
1.52446e-08
1.52443e-08
1.52431e-08
1.52416e-08
1.52432e-08
1.52436e-08
1.52445e-08
1.52443e-08
1.5243e-08
1.52416e-08
1.52432e-08
1.52436e-08
1.52444e-08
1.52442e-08
1.52429e-08
1.52416e-08
1.52432e-08
1.52435e-08
1.52443e-08
1.52441e-08
1.52428e-08
1.52416e-08
1.52431e-08
1.52434e-08
1.52442e-08
1.5244e-08
1.52427e-08
1.52416e-08
1.52431e-08
1.52434e-08
1.52441e-08
1.52439e-08
1.52426e-08
1.52416e-08
1.5243e-08
1.52433e-08
1.5244e-08
1.52438e-08
1.52424e-08
1.52416e-08
1.5243e-08
1.52432e-08
1.52439e-08
1.52437e-08
1.52423e-08
1.52416e-08
1.52429e-08
1.52432e-08
1.52438e-08
1.52436e-08
1.52422e-08
1.52416e-08
1.52429e-08
1.52431e-08
1.52437e-08
1.52435e-08
1.52421e-08
1.52416e-08
1.52428e-08
1.5243e-08
1.52436e-08
1.52434e-08
1.52419e-08
1.52416e-08
1.52428e-08
1.52429e-08
1.52434e-08
1.52433e-08
1.52418e-08
1.52415e-08
1.52427e-08
1.52429e-08
1.52433e-08
1.52432e-08
1.52417e-08
1.52415e-08
1.52426e-08
1.52428e-08
1.52432e-08
1.5243e-08
1.52415e-08
1.52415e-08
1.52426e-08
1.52427e-08
1.52431e-08
1.52429e-08
1.52414e-08
1.52415e-08
1.52425e-08
1.52426e-08
1.52429e-08
1.52428e-08
1.52413e-08
1.52415e-08
1.52425e-08
1.52425e-08
1.52428e-08
1.52427e-08
1.52412e-08
1.52415e-08
1.52424e-08
1.52425e-08
1.52427e-08
1.52425e-08
1.5241e-08
1.52415e-08
1.52423e-08
1.52424e-08
1.52425e-08
1.52424e-08
1.52409e-08
1.52415e-08
1.52423e-08
1.52423e-08
1.52424e-08
1.52423e-08
1.52408e-08
1.52415e-08
1.52422e-08
1.52422e-08
1.52423e-08
1.52421e-08
1.52407e-08
1.52415e-08
1.52421e-08
1.52421e-08
1.52421e-08
1.5242e-08
1.52406e-08
1.52415e-08
1.52421e-08
1.52419e-08
1.52419e-08
1.52417e-08
1.52404e-08
1.52415e-08
1.5242e-08
1.52417e-08
1.52417e-08
1.52415e-08
1.52402e-08
1.52415e-08
1.52419e-08
1.52416e-08
1.52416e-08
1.52414e-08
1.52402e-08
1.52414e-08
1.52419e-08
1.52416e-08
1.52415e-08
1.52412e-08
1.52401e-08
1.52414e-08
1.52418e-08
1.52416e-08
1.52414e-08
1.52411e-08
1.524e-08
1.52414e-08
1.52418e-08
1.52416e-08
1.52413e-08
1.52409e-08
1.52399e-08
1.52414e-08
1.52417e-08
1.52415e-08
1.52411e-08
1.52407e-08
1.52397e-08
1.52414e-08
1.52417e-08
1.52415e-08
1.52411e-08
1.52405e-08
1.52396e-08
1.52414e-08
1.52416e-08
1.52414e-08
1.52411e-08
1.52404e-08
1.52395e-08
1.52414e-08
1.52415e-08
1.52414e-08
1.5241e-08
1.52404e-08
1.52395e-08
1.52414e-08
1.52415e-08
1.52413e-08
1.5241e-08
1.52404e-08
1.52395e-08
1.52414e-08
1.52414e-08
1.52413e-08
1.52409e-08
1.52403e-08
1.52395e-08
1.52413e-08
1.52413e-08
1.52412e-08
1.52408e-08
1.52402e-08
1.52395e-08
1.52413e-08
1.52412e-08
1.52409e-08
1.52405e-08
1.52399e-08
1.52392e-08
1.52413e-08
1.52412e-08
1.52409e-08
1.52406e-08
1.52399e-08
1.52392e-08
1.52413e-08
1.52413e-08
1.52412e-08
1.52408e-08
1.52402e-08
1.52395e-08
1.52414e-08
1.52414e-08
1.52413e-08
1.52409e-08
1.52403e-08
1.52395e-08
1.52414e-08
1.52415e-08
1.52413e-08
1.5241e-08
1.52403e-08
1.52395e-08
1.52414e-08
1.52415e-08
1.52414e-08
1.5241e-08
1.52404e-08
1.52395e-08
1.52414e-08
1.52416e-08
1.52414e-08
1.52411e-08
1.52404e-08
1.52395e-08
1.52414e-08
1.52417e-08
1.52415e-08
1.52411e-08
1.52405e-08
1.52396e-08
1.52414e-08
1.52417e-08
1.52415e-08
1.52411e-08
1.52407e-08
1.52397e-08
1.52414e-08
1.52418e-08
1.52416e-08
1.52413e-08
1.52409e-08
1.52399e-08
1.52414e-08
1.52418e-08
1.52416e-08
1.52414e-08
1.52411e-08
1.524e-08
1.52414e-08
1.52419e-08
1.52416e-08
1.52415e-08
1.52412e-08
1.52401e-08
1.52414e-08
1.5242e-08
1.52416e-08
1.52416e-08
1.52414e-08
1.52402e-08
1.52414e-08
1.5242e-08
1.52417e-08
1.52417e-08
1.52415e-08
1.52402e-08
1.52414e-08
1.52421e-08
1.52419e-08
1.52419e-08
1.52417e-08
1.52404e-08
1.52414e-08
1.52422e-08
1.52421e-08
1.52421e-08
1.5242e-08
1.52406e-08
1.52414e-08
1.52422e-08
1.52422e-08
1.52423e-08
1.52421e-08
1.52407e-08
1.52414e-08
1.52423e-08
1.52423e-08
1.52424e-08
1.52422e-08
1.52408e-08
1.52415e-08
1.52423e-08
1.52424e-08
1.52425e-08
1.52424e-08
1.52409e-08
1.52415e-08
1.52424e-08
1.52425e-08
1.52427e-08
1.52425e-08
1.5241e-08
1.52415e-08
1.52425e-08
1.52425e-08
1.52428e-08
1.52426e-08
1.52411e-08
1.52415e-08
1.52425e-08
1.52426e-08
1.52429e-08
1.52428e-08
1.52413e-08
1.52415e-08
1.52426e-08
1.52427e-08
1.5243e-08
1.52429e-08
1.52414e-08
1.52415e-08
1.52426e-08
1.52428e-08
1.52432e-08
1.5243e-08
1.52415e-08
1.52415e-08
1.52427e-08
1.52428e-08
1.52433e-08
1.52431e-08
1.52416e-08
1.52416e-08
1.52427e-08
1.52429e-08
1.52434e-08
1.52433e-08
1.52418e-08
1.52416e-08
1.52428e-08
1.5243e-08
1.52435e-08
1.52434e-08
1.52419e-08
1.52416e-08
1.52429e-08
1.52431e-08
1.52437e-08
1.52435e-08
1.5242e-08
1.52416e-08
1.52429e-08
1.52431e-08
1.52438e-08
1.52436e-08
1.52422e-08
1.52416e-08
1.5243e-08
1.52432e-08
1.52439e-08
1.52437e-08
1.52423e-08
1.52416e-08
1.5243e-08
1.52433e-08
1.5244e-08
1.52438e-08
1.52424e-08
1.52416e-08
1.52431e-08
1.52434e-08
1.52441e-08
1.52439e-08
1.52425e-08
1.52416e-08
1.52431e-08
1.52434e-08
1.52442e-08
1.5244e-08
1.52426e-08
1.52416e-08
1.52431e-08
1.52435e-08
1.52443e-08
1.52441e-08
1.52428e-08
1.52416e-08
1.52432e-08
1.52435e-08
1.52444e-08
1.52442e-08
1.52429e-08
1.52416e-08
1.52432e-08
1.52436e-08
1.52445e-08
1.52442e-08
1.5243e-08
1.52416e-08
1.52433e-08
1.52437e-08
1.52446e-08
1.52443e-08
1.52431e-08
1.52417e-08
1.52433e-08
1.52437e-08
1.52447e-08
1.52444e-08
1.52432e-08
1.52417e-08
1.52433e-08
1.52438e-08
1.52448e-08
1.52445e-08
1.52432e-08
1.52417e-08
1.52434e-08
1.52438e-08
1.52448e-08
1.52445e-08
1.52433e-08
1.52417e-08
1.52434e-08
1.52439e-08
1.52449e-08
1.52446e-08
1.52434e-08
1.52417e-08
1.52434e-08
1.52439e-08
1.5245e-08
1.52446e-08
1.52433e-08
1.52417e-08
1.52435e-08
1.52439e-08
1.52452e-08
1.52446e-08
1.52434e-08
1.52417e-08
1.52435e-08
1.5244e-08
1.52455e-08
1.5245e-08
1.52444e-08
1.52417e-08
1.52434e-08
1.52441e-08
1.52461e-08
1.52466e-08
1.52487e-08
1.52417e-08
1.52434e-08
1.52446e-08
1.52481e-08
1.525e-08
1.52577e-08
1.52417e-08
1.52436e-08
1.5246e-08
1.52533e-08
1.52587e-08
1.52767e-08
1.52417e-08
1.52446e-08
1.52497e-08
1.52658e-08
1.52784e-08
1.53205e-08
1.52418e-08
1.52477e-08
1.52594e-08
1.52956e-08
1.53232e-08
1.54033e-08
1.52422e-08
1.52552e-08
1.52814e-08
1.53568e-08
1.54107e-08
1.55281e-08
1.52436e-08
1.5272e-08
1.53264e-08
1.54762e-08
1.55792e-08
1.57621e-08
1.52464e-08
1.53086e-08
1.5411e-08
1.56882e-08
1.58705e-08
1.61959e-08
1.52516e-08
1.53814e-08
1.55618e-08
1.6058e-08
1.63471e-08
1.69173e-08
1.52624e-08
1.55124e-08
1.58217e-08
1.66474e-08
1.71325e-08
1.81898e-08
1.52872e-08
1.57348e-08
1.62477e-08
1.75431e-08
1.8366e-08
2.0314e-08
1.53367e-08
1.60949e-08
1.69066e-08
1.88937e-08
2.02916e-08
2.39527e-08
1.54231e-08
1.66488e-08
1.78821e-08
2.09499e-08
2.33951e-08
3.06922e-08
1.55617e-08
1.74641e-08
1.92979e-08
2.40484e-08
2.82403e-08
4.36733e-08
1.57689e-08
1.86285e-08
2.13478e-08
2.87278e-08
3.58282e-08
6.99938e-08
1.60594e-08
2.02732e-08
2.43024e-08
3.57344e-08
4.80599e-08
1.27592e-07
1.64426e-08
2.25833e-08
2.84676e-08
4.60705e-08
6.79248e-08
2.61411e-07
1.69202e-08
2.56438e-08
3.43136e-08
6.13107e-08
9.91913e-08
5.66706e-07
1.74849e-08
2.95008e-08
4.23913e-08
8.391e-08
1.47275e-07
1.23508e-06
1.81205e-08
3.4137e-08
5.31857e-08
1.17087e-07
2.20201e-07
2.55914e-06
1.88029e-08
3.94492e-08
6.7071e-08
1.63124e-07
3.30535e-07
4.872e-06
1.95033e-08
4.52396e-08
8.41878e-08
2.23274e-07
4.96248e-07
8.45233e-06
2.01904e-08
5.12293e-08
1.04339e-07
2.97245e-07
7.28532e-07
1.32825e-05
2.08339e-08
5.70908e-08
1.26942e-07
3.82839e-07
1.03292e-06
1.90946e-05
2.14077e-08
6.24938e-08
1.51067e-07
4.76111e-07
1.40678e-06
2.54805e-05
2.18912e-08
6.71522e-08
1.75553e-07
5.71974e-07
1.8387e-06
3.20243e-05
2.2271e-08
7.08591e-08
1.99164e-07
6.65024e-07
2.30992e-06
3.8407e-05
2.25411e-08
7.35054e-08
2.2071e-07
7.50482e-07
2.79715e-06
4.44257e-05
2.27023e-08
7.50778e-08
2.39065e-07
8.25073e-07
3.27587e-06
4.99506e-05
2.2761e-08
7.56459e-08
2.53458e-07
8.86503e-07
3.72401e-06
5.49107e-05
2.27276e-08
7.53385e-08
2.63522e-07
9.33104e-07
4.12517e-06
5.9279e-05
2.26153e-08
7.43137e-08
2.69265e-07
9.64557e-07
4.4676e-06
6.30585e-05
2.24385e-08
7.27424e-08
2.71e-07
9.81604e-07
4.7445e-06
6.62721e-05
2.22118e-08
7.079e-08
2.69257e-07
9.85853e-07
4.95368e-06
6.89555e-05
2.1949e-08
6.85986e-08
2.6469e-07
9.79331e-07
5.09685e-06
7.11515e-05
2.16628e-08
6.62743e-08
2.58034e-07
9.64244e-07
5.17882e-06
7.29066e-05
2.1364e-08
6.39084e-08
2.49969e-07
9.42797e-07
5.20654e-06
7.42689e-05
2.1062e-08
6.15748e-08
2.41088e-07
9.17024e-07
5.18831e-06
7.52859e-05
2.07642e-08
5.93298e-08
2.31879e-07
8.88702e-07
5.13291e-06
7.60041e-05
2.04767e-08
5.7214e-08
2.22722e-07
8.59313e-07
5.04908e-06
7.64673e-05
2.0204e-08
5.52543e-08
2.13903e-07
8.30035e-07
4.94514e-06
7.67169e-05
1.99492e-08
5.34665e-08
2.05618e-07
8.01763e-07
4.82858e-06
7.67918e-05
1.97147e-08
5.18577e-08
1.97997e-07
7.75144e-07
4.70588e-06
7.67278e-05
1.95016e-08
5.04283e-08
1.91112e-07
7.50614e-07
4.58246e-06
7.6557e-05
1.93107e-08
4.9174e-08
1.84994e-07
7.28436e-07
4.46266e-06
7.63087e-05
1.91419e-08
4.80874e-08
1.79641e-07
7.08743e-07
4.34983e-06
7.60091e-05
1.89949e-08
4.71589e-08
1.75033e-07
6.91563e-07
4.24641e-06
7.56814e-05
1.8869e-08
4.63775e-08
1.71131e-07
6.76853e-07
4.15404e-06
7.53459e-05
1.87632e-08
4.57317e-08
1.67892e-07
6.64516e-07
4.07374e-06
7.50199e-05
1.86763e-08
4.521e-08
1.65265e-07
6.54422e-07
4.00597e-06
7.47182e-05
1.86072e-08
4.48009e-08
1.63199e-07
6.46419e-07
3.95079e-06
7.44527e-05
1.85546e-08
4.44934e-08
1.61641e-07
6.40346e-07
3.90792e-06
7.42324e-05
1.8517e-08
4.42769e-08
1.60542e-07
6.36035e-07
3.87688e-06
7.40639e-05
1.84933e-08
4.41416e-08
1.59853e-07
6.3332e-07
3.85698e-06
7.39508e-05
1.84821e-08
4.40782e-08
1.5953e-07
6.32039e-07
3.84745e-06
7.38947e-05
4.8686e-10
2.80044e-10
2.54602e-10
2.38873e-10
2.27166e-10
2.18011e-10
2.10636e-10
2.04589e-10
1.99544e-10
1.95257e-10
1.91557e-10
1.88324e-10
1.85467e-10
1.82921e-10
1.80633e-10
1.78564e-10
1.76681e-10
1.74959e-10
1.73378e-10
1.71919e-10
1.70569e-10
1.69316e-10
1.68149e-10
1.6706e-10
1.6604e-10
1.65083e-10
1.64184e-10
1.63337e-10
1.62538e-10
1.61782e-10
1.61068e-10
1.6039e-10
1.59747e-10
1.59136e-10
1.58554e-10
1.58e-10
1.57472e-10
1.56968e-10
1.56486e-10
1.56025e-10
1.55584e-10
1.55162e-10
1.54757e-10
1.54369e-10
1.53996e-10
1.53638e-10
1.53293e-10
1.52962e-10
1.52644e-10
1.52337e-10
1.52041e-10
1.51756e-10
1.51481e-10
1.51215e-10
1.50959e-10
1.50711e-10
1.50472e-10
1.50241e-10
1.50018e-10
1.49801e-10
1.49592e-10
1.49389e-10
1.49193e-10
1.49002e-10
1.48818e-10
1.48639e-10
1.48466e-10
1.48297e-10
1.48134e-10
1.47975e-10
1.47822e-10
1.47672e-10
1.47527e-10
1.47385e-10
1.47248e-10
1.47115e-10
1.46985e-10
1.46859e-10
1.46736e-10
1.46616e-10
1.465e-10
1.46386e-10
1.46276e-10
1.46168e-10
1.46063e-10
1.45961e-10
1.45862e-10
1.45765e-10
1.4567e-10
1.45578e-10
1.45488e-10
1.454e-10
1.45315e-10
1.45231e-10
1.45149e-10
1.4507e-10
1.44992e-10
1.44916e-10
1.44842e-10
1.4477e-10
1.44699e-10
1.4463e-10
1.44563e-10
1.44497e-10
1.44433e-10
1.4437e-10
1.44309e-10
1.44249e-10
1.44191e-10
1.44134e-10
1.44078e-10
1.44024e-10
1.43971e-10
1.43919e-10
1.43868e-10
1.43819e-10
1.43771e-10
1.43725e-10
1.43679e-10
1.43635e-10
1.43592e-10
1.4355e-10
1.4351e-10
1.4347e-10
1.43432e-10
1.43395e-10
1.4336e-10
1.43326e-10
1.43293e-10
1.43261e-10
1.43231e-10
1.43202e-10
1.43175e-10
1.43149e-10
1.43124e-10
1.43101e-10
1.4308e-10
1.43061e-10
1.43043e-10
1.43027e-10
1.43012e-10
1.43e-10
1.4299e-10
1.42981e-10
1.42975e-10
1.42971e-10
1.42969e-10
1.4297e-10
1.42973e-10
1.42979e-10
1.42988e-10
1.42999e-10
1.43014e-10
1.43031e-10
1.43052e-10
1.43076e-10
1.43104e-10
1.43135e-10
1.4317e-10
1.43209e-10
1.43253e-10
1.433e-10
1.43352e-10
1.43409e-10
1.43471e-10
1.43538e-10
1.4361e-10
1.43688e-10
1.43771e-10
1.43861e-10
1.43956e-10
1.44059e-10
1.44168e-10
1.44284e-10
1.44407e-10
1.44538e-10
1.44677e-10
1.44824e-10
1.4498e-10
1.45145e-10
1.45319e-10
1.45503e-10
1.45697e-10
1.45902e-10
1.46118e-10
1.46345e-10
1.46584e-10
1.46835e-10
1.47101e-10
1.47331e-10
1.47516e-10
1.47705e-10
1.47899e-10
1.48098e-10
1.48301e-10
1.48508e-10
1.4872e-10
1.48937e-10
1.49159e-10
1.49385e-10
1.49616e-10
1.49851e-10
1.50091e-10
1.50336e-10
1.50586e-10
1.50841e-10
1.51101e-10
1.51365e-10
1.51635e-10
1.51909e-10
1.52189e-10
1.52474e-10
1.52764e-10
1.53059e-10
1.5336e-10
1.53666e-10
1.53978e-10
1.54295e-10
1.54618e-10
1.54947e-10
1.55282e-10
1.55623e-10
1.5597e-10
1.56323e-10
1.56683e-10
1.57049e-10
1.57423e-10
1.57803e-10
1.58191e-10
1.58587e-10
1.5899e-10
1.59402e-10
1.59822e-10
1.60251e-10
1.6069e-10
1.61139e-10
1.61599e-10
1.6207e-10
1.62553e-10
1.63049e-10
1.6356e-10
1.64085e-10
1.64628e-10
1.65188e-10
1.6577e-10
1.66371e-10
1.67004e-10
1.67656e-10
1.68357e-10
1.69071e-10
1.6987e-10
1.70661e-10
1.7161e-10
1.725e-10
1.73698e-10
1.74721e-10
1.76359e-10
1.77611e-10
1.80064e-10
1.81955e-10
1.86085e-10
1.90073e-10
2.02352e-10
2.0743e-10
2.33393e-08
1.31406e-08
1.16696e-08
1.07721e-08
1.01108e-08
9.5985e-09
9.18897e-09
8.85531e-09
8.57839e-09
8.34418e-09
8.14292e-09
7.9677e-09
7.81343e-09
7.67634e-09
7.5535e-09
7.44269e-09
7.34212e-09
7.25035e-09
7.16624e-09
7.08883e-09
7.01731e-09
6.95103e-09
6.8894e-09
6.83195e-09
6.77825e-09
6.72795e-09
6.68072e-09
6.6363e-09
6.59443e-09
6.5549e-09
6.51753e-09
6.48215e-09
6.44859e-09
6.41673e-09
6.38644e-09
6.35761e-09
6.33015e-09
6.30395e-09
6.27894e-09
6.25504e-09
6.23218e-09
6.2103e-09
6.18933e-09
6.16923e-09
6.14995e-09
6.13143e-09
6.11364e-09
6.09654e-09
6.08009e-09
6.06426e-09
6.04901e-09
6.03431e-09
6.02014e-09
6.00648e-09
5.99329e-09
5.98055e-09
5.96826e-09
5.95637e-09
5.94488e-09
5.93376e-09
5.92301e-09
5.9126e-09
5.90252e-09
5.89276e-09
5.8833e-09
5.87413e-09
5.86523e-09
5.85661e-09
5.84824e-09
5.84012e-09
5.83224e-09
5.82458e-09
5.81714e-09
5.80992e-09
5.80289e-09
5.79607e-09
5.78943e-09
5.78297e-09
5.77669e-09
5.77058e-09
5.76463e-09
5.75883e-09
5.75319e-09
5.7477e-09
5.74235e-09
5.73714e-09
5.73206e-09
5.72711e-09
5.72228e-09
5.71757e-09
5.71298e-09
5.70851e-09
5.70414e-09
5.69988e-09
5.69572e-09
5.69166e-09
5.68771e-09
5.68384e-09
5.68007e-09
5.67638e-09
5.67279e-09
5.66927e-09
5.66584e-09
5.66249e-09
5.65922e-09
5.65603e-09
5.65291e-09
5.64986e-09
5.64689e-09
5.64398e-09
5.64115e-09
5.63838e-09
5.63568e-09
5.63305e-09
5.63048e-09
5.62797e-09
5.62553e-09
5.62315e-09
5.62084e-09
5.61858e-09
5.61639e-09
5.61426e-09
5.6122e-09
5.61019e-09
5.60825e-09
5.60637e-09
5.60456e-09
5.60281e-09
5.60113e-09
5.59951e-09
5.59797e-09
5.59649e-09
5.59509e-09
5.59376e-09
5.5925e-09
5.59132e-09
5.59022e-09
5.58921e-09
5.58827e-09
5.58743e-09
5.58668e-09
5.58602e-09
5.58546e-09
5.58501e-09
5.58466e-09
5.58442e-09
5.58429e-09
5.58429e-09
5.5844e-09
5.58465e-09
5.58504e-09
5.58556e-09
5.58623e-09
5.58706e-09
5.58804e-09
5.58919e-09
5.59052e-09
5.59202e-09
5.59372e-09
5.59561e-09
5.5977e-09
5.60001e-09
5.60255e-09
5.60531e-09
5.60832e-09
5.61158e-09
5.6151e-09
5.61889e-09
5.62297e-09
5.62735e-09
5.63203e-09
5.63703e-09
5.64237e-09
5.64806e-09
5.65411e-09
5.66053e-09
5.66735e-09
5.67458e-09
5.68223e-09
5.69032e-09
5.69888e-09
5.70792e-09
5.71746e-09
5.72752e-09
5.73813e-09
5.74929e-09
5.76108e-09
5.77345e-09
5.78651e-09
5.79783e-09
5.80695e-09
5.81627e-09
5.82583e-09
5.83561e-09
5.84562e-09
5.85585e-09
5.86631e-09
5.877e-09
5.88791e-09
5.89906e-09
5.91044e-09
5.92206e-09
5.93391e-09
5.946e-09
5.95832e-09
5.97089e-09
5.9837e-09
5.99676e-09
6.01007e-09
6.02362e-09
6.03743e-09
6.05149e-09
6.06582e-09
6.0804e-09
6.09525e-09
6.11036e-09
6.12575e-09
6.14142e-09
6.15737e-09
6.1736e-09
6.19012e-09
6.20695e-09
6.22407e-09
6.24151e-09
6.25927e-09
6.27735e-09
6.29577e-09
6.31454e-09
6.33366e-09
6.35316e-09
6.37303e-09
6.39331e-09
6.41401e-09
6.43514e-09
6.45672e-09
6.47879e-09
6.50137e-09
6.52448e-09
6.54818e-09
6.57247e-09
6.59745e-09
6.62311e-09
6.64959e-09
6.67685e-09
6.70515e-09
6.73432e-09
6.76491e-09
6.79639e-09
6.83002e-09
6.86431e-09
6.90224e-09
6.94e-09
6.98448e-09
7.02651e-09
7.08167e-09
7.1293e-09
7.20303e-09
7.25985e-09
7.36781e-09
7.44849e-09
7.62603e-09
7.78252e-09
8.24355e-09
8.87015e-09
1.78786e-07
1.09356e-07
9.71513e-08
8.96394e-08
8.40897e-08
7.9787e-08
7.63448e-08
7.35375e-08
7.12059e-08
6.92331e-08
6.75371e-08
6.60602e-08
6.47597e-08
6.36037e-08
6.25678e-08
6.16332e-08
6.07849e-08
6.00109e-08
5.93014e-08
5.86483e-08
5.8045e-08
5.74858e-08
5.69659e-08
5.64812e-08
5.60282e-08
5.56038e-08
5.52053e-08
5.48305e-08
5.44773e-08
5.41439e-08
5.38286e-08
5.353e-08
5.3247e-08
5.29782e-08
5.27227e-08
5.24795e-08
5.22478e-08
5.20268e-08
5.18158e-08
5.16142e-08
5.14213e-08
5.12368e-08
5.10599e-08
5.08904e-08
5.07277e-08
5.05716e-08
5.04215e-08
5.02773e-08
5.01385e-08
5.00049e-08
4.98763e-08
4.97524e-08
4.96329e-08
4.95176e-08
4.94064e-08
4.9299e-08
4.91953e-08
4.9095e-08
4.89981e-08
4.89044e-08
4.88137e-08
4.87259e-08
4.86409e-08
4.85586e-08
4.84788e-08
4.84015e-08
4.83265e-08
4.82537e-08
4.81832e-08
4.81147e-08
4.80482e-08
4.79837e-08
4.7921e-08
4.786e-08
4.78008e-08
4.77432e-08
4.76873e-08
4.76328e-08
4.75798e-08
4.75283e-08
4.74781e-08
4.74293e-08
4.73818e-08
4.73354e-08
4.72903e-08
4.72464e-08
4.72035e-08
4.71618e-08
4.71211e-08
4.70814e-08
4.70427e-08
4.7005e-08
4.69682e-08
4.69322e-08
4.68972e-08
4.6863e-08
4.68296e-08
4.6797e-08
4.67652e-08
4.67341e-08
4.67038e-08
4.66742e-08
4.66453e-08
4.6617e-08
4.65895e-08
4.65625e-08
4.65362e-08
4.65105e-08
4.64854e-08
4.64609e-08
4.6437e-08
4.64137e-08
4.63909e-08
4.63687e-08
4.6347e-08
4.63259e-08
4.63053e-08
4.62852e-08
4.62657e-08
4.62466e-08
4.62281e-08
4.62101e-08
4.61927e-08
4.61757e-08
4.61593e-08
4.61434e-08
4.61281e-08
4.61133e-08
4.6099e-08
4.60853e-08
4.60722e-08
4.60597e-08
4.60477e-08
4.60364e-08
4.60257e-08
4.60156e-08
4.60062e-08
4.59975e-08
4.59894e-08
4.59822e-08
4.59756e-08
4.59699e-08
4.59649e-08
4.59608e-08
4.59576e-08
4.59552e-08
4.59539e-08
4.59535e-08
4.59541e-08
4.59558e-08
4.59586e-08
4.59626e-08
4.59677e-08
4.59741e-08
4.59819e-08
4.5991e-08
4.60015e-08
4.60135e-08
4.60271e-08
4.60423e-08
4.60591e-08
4.60777e-08
4.60982e-08
4.61205e-08
4.61448e-08
4.61711e-08
4.61997e-08
4.62304e-08
4.62635e-08
4.6299e-08
4.6337e-08
4.63776e-08
4.64209e-08
4.64671e-08
4.65163e-08
4.65685e-08
4.66239e-08
4.66827e-08
4.67449e-08
4.68107e-08
4.68803e-08
4.69538e-08
4.70314e-08
4.71131e-08
4.71994e-08
4.72902e-08
4.7386e-08
4.74865e-08
4.75926e-08
4.76845e-08
4.77587e-08
4.78344e-08
4.79121e-08
4.79915e-08
4.80728e-08
4.81558e-08
4.82407e-08
4.83274e-08
4.8416e-08
4.85064e-08
4.85987e-08
4.86928e-08
4.87889e-08
4.88868e-08
4.89867e-08
4.90885e-08
4.91922e-08
4.92979e-08
4.94055e-08
4.95152e-08
4.96268e-08
4.97405e-08
4.98562e-08
4.9974e-08
5.00938e-08
5.02158e-08
5.03399e-08
5.04662e-08
5.05947e-08
5.07255e-08
5.08585e-08
5.09938e-08
5.11315e-08
5.12716e-08
5.14142e-08
5.15593e-08
5.1707e-08
5.18573e-08
5.20104e-08
5.21663e-08
5.23252e-08
5.24871e-08
5.26521e-08
5.28204e-08
5.29922e-08
5.31676e-08
5.33467e-08
5.35299e-08
5.37173e-08
5.39092e-08
5.4106e-08
5.43079e-08
5.45156e-08
5.47291e-08
5.49498e-08
5.51771e-08
5.54139e-08
5.56575e-08
5.59154e-08
5.61788e-08
5.64661e-08
5.67532e-08
5.70844e-08
5.74002e-08
5.78015e-08
5.81532e-08
5.8674e-08
5.90803e-08
5.98208e-08
6.03529e-08
6.15328e-08
6.24604e-08
6.4953e-08
7.10896e-08
6.88207e-07
4.61372e-07
4.12215e-07
3.81101e-07
3.57961e-07
3.39954e-07
3.25507e-07
3.13696e-07
3.03868e-07
2.95539e-07
2.88371e-07
2.82123e-07
2.76616e-07
2.71718e-07
2.67327e-07
2.63362e-07
2.59762e-07
2.56476e-07
2.53463e-07
2.50689e-07
2.48125e-07
2.45748e-07
2.43538e-07
2.41477e-07
2.3955e-07
2.37745e-07
2.3605e-07
2.34455e-07
2.32951e-07
2.31532e-07
2.3019e-07
2.28919e-07
2.27714e-07
2.26569e-07
2.25481e-07
2.24445e-07
2.23458e-07
2.22517e-07
2.21618e-07
2.20759e-07
2.19938e-07
2.19151e-07
2.18398e-07
2.17675e-07
2.16982e-07
2.16317e-07
2.15677e-07
2.15062e-07
2.14471e-07
2.13902e-07
2.13353e-07
2.12825e-07
2.12316e-07
2.11824e-07
2.1135e-07
2.10892e-07
2.1045e-07
2.10022e-07
2.09609e-07
2.0921e-07
2.08823e-07
2.08448e-07
2.08086e-07
2.07735e-07
2.07395e-07
2.07065e-07
2.06745e-07
2.06435e-07
2.06134e-07
2.05842e-07
2.05558e-07
2.05283e-07
2.05016e-07
2.04756e-07
2.04503e-07
2.04258e-07
2.04019e-07
2.03787e-07
2.03561e-07
2.03341e-07
2.03127e-07
2.02919e-07
2.02716e-07
2.02518e-07
2.02326e-07
2.02138e-07
2.01956e-07
2.01777e-07
2.01604e-07
2.01435e-07
2.0127e-07
2.01108e-07
2.00951e-07
2.00798e-07
2.00649e-07
2.00503e-07
2.0036e-07
2.00221e-07
2.00085e-07
1.99953e-07
1.99824e-07
1.99697e-07
1.99574e-07
1.99453e-07
1.99336e-07
1.99221e-07
1.99108e-07
1.98999e-07
1.98892e-07
1.98787e-07
1.98685e-07
1.98585e-07
1.98488e-07
1.98393e-07
1.98301e-07
1.9821e-07
1.98122e-07
1.98037e-07
1.97953e-07
1.97872e-07
1.97793e-07
1.97716e-07
1.97641e-07
1.97569e-07
1.97498e-07
1.9743e-07
1.97365e-07
1.97301e-07
1.9724e-07
1.97181e-07
1.97125e-07
1.97071e-07
1.97019e-07
1.96971e-07
1.96924e-07
1.96881e-07
1.9684e-07
1.96802e-07
1.96767e-07
1.96735e-07
1.96706e-07
1.9668e-07
1.96658e-07
1.9664e-07
1.96624e-07
1.96613e-07
1.96606e-07
1.96603e-07
1.96604e-07
1.96609e-07
1.96619e-07
1.96634e-07
1.96654e-07
1.96679e-07
1.96709e-07
1.96746e-07
1.96788e-07
1.96836e-07
1.9689e-07
1.96952e-07
1.9702e-07
1.97095e-07
1.97178e-07
1.97269e-07
1.97368e-07
1.97476e-07
1.97592e-07
1.97718e-07
1.97853e-07
1.97998e-07
1.98154e-07
1.9832e-07
1.98497e-07
1.98687e-07
1.98888e-07
1.99102e-07
1.99329e-07
1.9957e-07
1.99825e-07
2.00095e-07
2.0038e-07
2.00682e-07
2.01e-07
2.01335e-07
2.01689e-07
2.02061e-07
2.02454e-07
2.02865e-07
2.033e-07
2.03676e-07
2.0398e-07
2.0429e-07
2.04608e-07
2.04933e-07
2.05266e-07
2.05606e-07
2.05953e-07
2.06307e-07
2.06669e-07
2.07039e-07
2.07416e-07
2.07801e-07
2.08193e-07
2.08593e-07
2.09e-07
2.09415e-07
2.09838e-07
2.10269e-07
2.10707e-07
2.11154e-07
2.11608e-07
2.12071e-07
2.12541e-07
2.1302e-07
2.13507e-07
2.14003e-07
2.14506e-07
2.15019e-07
2.15539e-07
2.16069e-07
2.16608e-07
2.17155e-07
2.17712e-07
2.18278e-07
2.18853e-07
2.19439e-07
2.20034e-07
2.20639e-07
2.21255e-07
2.21882e-07
2.22519e-07
2.23168e-07
2.23829e-07
2.24502e-07
2.25188e-07
2.25887e-07
2.266e-07
2.27328e-07
2.28071e-07
2.28831e-07
2.29608e-07
2.30404e-07
2.31219e-07
2.32056e-07
2.32917e-07
2.33802e-07
2.34718e-07
2.3566e-07
2.36646e-07
2.37654e-07
2.38735e-07
2.39823e-07
2.41043e-07
2.42222e-07
2.43657e-07
2.44943e-07
2.46733e-07
2.4816e-07
2.50612e-07
2.52274e-07
2.5603e-07
2.58492e-07
2.64135e-07
2.87615e-07
1.85084e-06
1.36583e-06
1.23478e-06
1.14613e-06
1.07924e-06
1.02676e-06
9.84417e-07
9.49644e-07
9.20607e-07
8.95936e-07
8.74659e-07
8.5608e-07
8.39682e-07
8.25079e-07
8.11972e-07
8.00129e-07
7.89367e-07
7.79536e-07
7.70516e-07
7.62207e-07
7.54524e-07
7.47399e-07
7.4077e-07
7.34587e-07
7.28804e-07
7.23385e-07
7.18295e-07
7.13504e-07
7.08988e-07
7.04723e-07
7.00689e-07
6.96868e-07
6.93244e-07
6.89803e-07
6.8653e-07
6.83414e-07
6.80445e-07
6.77612e-07
6.74908e-07
6.72323e-07
6.6985e-07
6.67482e-07
6.65214e-07
6.63038e-07
6.60951e-07
6.58947e-07
6.57021e-07
6.55169e-07
6.53388e-07
6.51673e-07
6.50021e-07
6.48429e-07
6.46894e-07
6.45414e-07
6.43985e-07
6.42605e-07
6.41272e-07
6.39984e-07
6.38739e-07
6.37534e-07
6.36368e-07
6.3524e-07
6.34147e-07
6.33089e-07
6.32063e-07
6.31069e-07
6.30105e-07
6.2917e-07
6.28263e-07
6.27382e-07
6.26527e-07
6.25697e-07
6.2489e-07
6.24107e-07
6.23345e-07
6.22604e-07
6.21884e-07
6.21184e-07
6.20503e-07
6.19839e-07
6.19194e-07
6.18566e-07
6.17954e-07
6.17358e-07
6.16778e-07
6.16212e-07
6.15661e-07
6.15124e-07
6.146e-07
6.14089e-07
6.13591e-07
6.13106e-07
6.12632e-07
6.12169e-07
6.11718e-07
6.11278e-07
6.10848e-07
6.10429e-07
6.10019e-07
6.09619e-07
6.09229e-07
6.08848e-07
6.08475e-07
6.08112e-07
6.07756e-07
6.0741e-07
6.07071e-07
6.0674e-07
6.06417e-07
6.06101e-07
6.05793e-07
6.05492e-07
6.05199e-07
6.04912e-07
6.04632e-07
6.0436e-07
6.04094e-07
6.03835e-07
6.03582e-07
6.03336e-07
6.03097e-07
6.02865e-07
6.02639e-07
6.02419e-07
6.02207e-07
6.02e-07
6.01801e-07
6.01609e-07
6.01423e-07
6.01245e-07
6.01073e-07
6.00909e-07
6.00752e-07
6.00603e-07
6.00461e-07
6.00328e-07
6.00203e-07
6.00086e-07
5.99977e-07
5.99878e-07
5.99788e-07
5.99708e-07
5.99638e-07
5.99577e-07
5.99528e-07
5.9949e-07
5.99463e-07
5.99448e-07
5.99446e-07
5.99457e-07
5.99481e-07
5.99519e-07
5.99572e-07
5.9964e-07
5.99724e-07
5.99825e-07
5.99943e-07
6.00079e-07
6.00233e-07
6.00407e-07
6.00601e-07
6.00817e-07
6.01054e-07
6.01314e-07
6.01598e-07
6.01907e-07
6.02241e-07
6.02602e-07
6.02992e-07
6.0341e-07
6.03858e-07
6.04338e-07
6.0485e-07
6.05396e-07
6.05978e-07
6.06596e-07
6.07252e-07
6.07948e-07
6.08685e-07
6.09464e-07
6.10289e-07
6.11159e-07
6.12079e-07
6.13047e-07
6.14069e-07
6.15144e-07
6.16277e-07
6.17467e-07
6.18722e-07
6.19805e-07
6.20682e-07
6.21579e-07
6.22496e-07
6.23433e-07
6.24391e-07
6.25371e-07
6.26371e-07
6.27392e-07
6.28434e-07
6.29498e-07
6.30583e-07
6.31689e-07
6.32817e-07
6.33966e-07
6.35137e-07
6.36329e-07
6.37543e-07
6.3878e-07
6.40038e-07
6.41318e-07
6.4262e-07
6.43945e-07
6.45292e-07
6.46662e-07
6.48055e-07
6.4947e-07
6.50909e-07
6.52371e-07
6.53857e-07
6.55367e-07
6.56901e-07
6.58459e-07
6.60042e-07
6.6165e-07
6.63284e-07