/*--------------------------------*- C++ -*----------------------------------*\
| =========                 |                                                 |
| \\      /  F ield         | OpenFOAM: The Open Source CFD Toolbox           |
|  \\    /   O peration     | Version:  v1912                                 |
|   \\  /    A nd           | Website:  www.openfoam.com                      |
|    \\/     M anipulation  |                                                 |
\*---------------------------------------------------------------------------*/
FoamFile
{
    version     2.0;
    format      ascii;
    class       volScalarField;
    location    "10000";
    object      nut;
}
// * * * * * * * * * * * * * * * * * * * * * * * * * * * * * * * * * * * * * //

dimensions      [0 2 -1 0 0 0 0];


internalField   nonuniform List<scalar> 
20540
(
9.45522e-07
0.000148837
9.61059e-07
0.000149065
1.00029e-06
0.000149587
1.07448e-06
0.000150448
1.19868e-06
0.000151653
1.39141e-06
0.000153129
1.67086e-06
0.000154659
2.0431e-06
0.000155785
2.47756e-06
0.000155748
2.87265e-06
0.000153594
3.04076e-06
0.000147832
2.76488e-06
0.000136385
1.97415e-06
0.000116456
9.69068e-07
8.48724e-05
2.82534e-07
4.17113e-05
5.67219e-08
6.19767e-06
2.172e-08
3.41356e-07
1.67065e-08
3.45957e-08
1.56294e-08
1.78049e-08
1.52678e-08
1.55017e-08
1.52477e-08
1.53315e-08
1.52414e-08
1.52508e-08
1.52451e-08
1.52451e-08
1.52455e-08
1.52452e-08
1.52453e-08
1.5245e-08
1.5245e-08
1.52447e-08
1.52447e-08
1.52443e-08
1.52442e-08
1.52438e-08
1.52437e-08
1.52432e-08
1.52431e-08
1.52424e-08
1.52424e-08
1.52415e-08
1.52417e-08
1.52409e-08
1.52417e-08
1.52409e-08
1.52424e-08
1.52415e-08
1.52431e-08
1.52423e-08
1.52437e-08
1.52432e-08
1.52442e-08
1.52438e-08
1.52446e-08
1.52442e-08
1.5245e-08
1.52446e-08
1.52454e-08
1.52449e-08
1.52457e-08
1.52448e-08
1.52446e-08
1.5245e-08
1.5242e-08
1.52467e-08
1.52509e-08
1.52733e-08
1.52717e-08
1.53703e-08
1.54588e-08
1.62181e-08
1.56723e-08
2.19999e-08
1.87454e-08
1.06367e-07
2.93173e-08
1.7708e-06
1.22204e-07
2.06273e-05
5.22965e-07
6.38791e-05
1.36462e-06
0.000100883
2.30485e-06
0.000126189
2.89267e-06
0.000141863
2.99462e-06
0.000150694
2.74521e-06
0.000154948
2.3415e-06
0.000156314
1.93359e-06
0.00015598
1.59441e-06
0.000154723
1.34206e-06
0.000153207
1.16788e-06
0.000151794
1.05503e-06
0.000150656
9.87137e-07
0.000149846
9.5095e-07
0.000149355
9.36503e-07
0.00014914
7.92287e-09
5.23909e-09
4.66762e-09
4.37695e-09
4.20996e-09
4.1069e-09
4.03911e-09
3.99226e-09
3.95979e-09
3.93704e-09
3.9209e-09
3.90958e-09
3.9018e-09
3.89661e-09
3.89336e-09
3.8919e-09
3.89187e-09
3.89227e-09
3.8927e-09
3.89349e-09
3.89495e-09
3.89681e-09
3.89893e-09
3.90118e-09
3.90351e-09
3.9061e-09
3.9118e-09
3.91803e-09
3.91802e-09
3.91827e-09
3.92187e-09
3.92489e-09
3.92976e-09
3.93063e-09
3.93333e-09
3.93959e-09
3.94193e-09
3.94754e-09
3.94726e-09
3.94823e-09
3.95773e-09
3.95465e-09
3.95583e-09
3.96645e-09
3.96203e-09
3.96202e-09
3.96328e-09
3.96561e-09
3.98715e-09
3.97502e-09
3.97339e-09
4.00204e-09
3.97981e-09
3.97722e-09
4.00689e-09
3.98148e-09
3.96869e-09
3.98747e-09
3.97827e-09
3.96333e-09
3.96165e-09
3.96653e-09
3.96248e-09
3.97182e-09
3.96339e-09
3.96227e-09
3.96689e-09
3.96732e-09
3.9918e-09
4.05317e-09
8.35839e-09
8.62708e-09
8.57376e-09
8.81214e-09
8.97273e-09
8.97467e-09
9.18532e-09
9.3517e-09
9.49257e-09
9.65614e-09
9.86215e-09
1.00492e-08
1.02744e-08
1.04764e-08
1.06791e-08
1.0925e-08
1.10641e-08
1.28379e-08
8.44758e-07
5.96734e-07
5.25424e-07
4.88669e-07
4.66625e-07
4.52212e-07
4.42043e-07
4.3441e-07
4.28575e-07
4.23999e-07
4.20304e-07
4.17282e-07
4.14782e-07
4.12683e-07
4.10897e-07
4.09385e-07
4.08097e-07
4.06965e-07
4.05964e-07
4.05072e-07
4.04294e-07
4.03613e-07
4.03011e-07
4.02476e-07
4.01999e-07
4.01582e-07
4.01552e-07
4.01613e-07
4.00996e-07
4.00382e-07
4.00344e-07
4.00309e-07
4.00291e-07
3.99914e-07
3.99752e-07
4.0009e-07
3.99988e-07
4.00043e-07
3.99556e-07
3.99407e-07
4.0006e-07
3.99499e-07
3.99451e-07
4.00277e-07
3.99735e-07
3.99572e-07
3.99671e-07
3.99862e-07
4.01417e-07
4.00591e-07
4.0056e-07
4.02768e-07
4.01271e-07
4.0124e-07
4.03602e-07
4.02108e-07
4.0158e-07
4.03251e-07
4.03334e-07
4.03115e-07
4.03355e-07
4.04358e-07
4.05175e-07
4.06784e-07
4.07511e-07
4.08496e-07
4.09705e-07
4.10948e-07
4.13433e-07
4.19852e-07
5.74636e-07
5.86608e-07
5.86258e-07
5.95624e-07
6.02372e-07
6.05098e-07
6.13047e-07
6.1877e-07
6.26314e-07
6.32767e-07
6.40661e-07
6.47803e-07
6.57437e-07
6.64786e-07
6.7217e-07
6.73087e-07
6.83614e-07
7.17095e-07
1.11737e-05
8.50205e-06
7.28399e-06
6.60335e-06
6.17148e-06
5.87688e-06
5.66269e-06
5.49735e-06
5.3677e-06
5.26338e-06
5.17713e-06
5.10504e-06
5.0441e-06
4.99174e-06
4.94622e-06
4.90649e-06
4.87167e-06
4.84088e-06
4.81343e-06
4.78879e-06
4.76661e-06
4.74664e-06
4.72859e-06
4.71225e-06
4.6974e-06
4.68388e-06
4.67264e-06
4.66251e-06
4.65102e-06
4.64031e-06
4.632e-06
4.6244e-06
4.61757e-06
4.60975e-06
4.60334e-06
4.59885e-06
4.59341e-06
4.58881e-06
4.58278e-06
4.57834e-06
4.57702e-06
4.57179e-06
4.56903e-06
4.56969e-06
4.56481e-06
4.56159e-06
4.56119e-06
4.56139e-06
4.56681e-06
4.56433e-06
4.56508e-06
4.57422e-06
4.57061e-06
4.57206e-06
4.58315e-06
4.58364e-06
4.58785e-06
4.59928e-06
4.60836e-06
4.61922e-06
4.63319e-06
4.6511e-06
4.67173e-06
4.69482e-06
4.71343e-06
4.7326e-06
4.7533e-06
4.77515e-06
4.80147e-06
4.84222e-06
5.29152e-06
5.36559e-06
5.38335e-06
5.43696e-06
5.47828e-06
5.50749e-06
5.54973e-06
5.58866e-06
5.63431e-06
5.67698e-06
5.72898e-06
5.77106e-06
5.8258e-06
5.86779e-06
5.91874e-06
5.8912e-06
6.07222e-06
5.5115e-06
3.81654e-05
3.75083e-05
3.55627e-05
3.38301e-05
3.24996e-05
3.14756e-05
3.06691e-05
3.00052e-05
2.94604e-05
2.90041e-05
2.86139e-05
2.82797e-05
2.79908e-05
2.77372e-05
2.75127e-05
2.73138e-05
2.71371e-05
2.69792e-05
2.68368e-05
2.67078e-05
2.65905e-05
2.64839e-05
2.63868e-05
2.62983e-05
2.62173e-05
2.6143e-05
2.60751e-05
2.60125e-05
2.59533e-05
2.58982e-05
2.58481e-05
2.58016e-05
2.57586e-05
2.57177e-05
2.56801e-05
2.56461e-05
2.56137e-05
2.55838e-05
2.5555e-05
2.55289e-05
2.55064e-05
2.54835e-05
2.54635e-05
2.54476e-05
2.54302e-05
2.54156e-05
2.54046e-05
2.53966e-05
2.53946e-05
2.53903e-05
2.53919e-05
2.54008e-05
2.54051e-05
2.54171e-05
2.54408e-05
2.54623e-05
2.54928e-05
2.55338e-05
2.5581e-05
2.56371e-05
2.57043e-05
2.57831e-05
2.58747e-05
2.59634e-05
2.60401e-05
2.61213e-05
2.62064e-05
2.62963e-05
2.6392e-05
2.6503e-05
2.68174e-05
2.6953e-05
2.70661e-05
2.71906e-05
2.73128e-05
2.74311e-05
2.75591e-05
2.76852e-05
2.78199e-05
2.79472e-05
2.80945e-05
2.82106e-05
2.83761e-05
2.84324e-05
2.87084e-05
2.81291e-05
3.01764e-05
2.1872e-05
7.19504e-05
7.93986e-05
8.02123e-05
7.9208e-05
7.80518e-05
7.69927e-05
7.60722e-05
7.52535e-05
7.4551e-05
7.39376e-05
7.33947e-05
7.29197e-05
7.25012e-05
7.21262e-05
7.1789e-05
7.14868e-05
7.12162e-05
7.09721e-05
7.07499e-05
7.05468e-05
7.03609e-05
7.01911e-05
7.0036e-05
6.98941e-05
6.97637e-05
6.96435e-05
6.95324e-05
6.94292e-05
6.93332e-05
6.92438e-05
6.91609e-05
6.90838e-05
6.90122e-05
6.89454e-05
6.88833e-05
6.88257e-05
6.87718e-05
6.87217e-05
6.86749e-05
6.86314e-05
6.85913e-05
6.85541e-05
6.85199e-05
6.84891e-05
6.84616e-05
6.84375e-05
6.84169e-05
6.84004e-05
6.83894e-05
6.83823e-05
6.83808e-05
6.83862e-05
6.83958e-05
6.84134e-05
6.84414e-05
6.84766e-05
6.85217e-05
6.85791e-05
6.86487e-05
6.87315e-05
6.88297e-05
6.89439e-05
6.9076e-05
6.92e-05
6.9308e-05
6.9424e-05
6.95445e-05
6.96719e-05
6.98035e-05
6.99452e-05
7.01021e-05
7.0253e-05
7.04058e-05
7.05652e-05
7.0721e-05
7.08866e-05
7.10488e-05
7.12181e-05
7.13837e-05
7.15459e-05
7.17315e-05
7.18519e-05
7.21002e-05
7.20254e-05
7.26853e-05
7.10569e-05
7.56405e-05
5.72725e-05
0.000105663
0.000124535
0.000130894
0.000132267
0.000132375
0.000132039
0.00013156
0.00013101
0.000130484
0.000129981
0.000129504
0.00012907
0.000128676
0.000128311
0.000127974
0.000127667
0.00012739
0.000127136
0.000126902
0.000126686
0.000126486
0.000126303
0.000126135
0.000125981
0.000125838
0.000125706
0.000125584
0.000125469
0.000125363
0.000125263
0.00012517
0.000125084
0.000125004
0.000124929
0.00012486
0.000124795
0.000124735
0.000124678
0.000124626
0.000124577
0.000124531
0.00012449
0.000124451
0.000124415
0.000124384
0.000124357
0.000124333
0.000124314
0.0001243
0.000124292
0.000124289
0.000124293
0.000124304
0.000124323
0.000124352
0.00012439
0.000124439
0.000124501
0.000124576
0.000124666
0.000124771
0.000124895
0.000125037
0.000125169
0.000125284
0.000125408
0.000125535
0.000125671
0.000125809
0.000125958
0.000126085
0.000126237
0.000126393
0.00012656
0.000126715
0.00012689
0.000127049
0.000127227
0.000127385
0.000127548
0.000127739
0.000127831
0.00012813
0.000127911
0.000128888
0.000126625
0.000132149
0.000112438
0.000136054
0.000168253
0.000182323
0.000187531
0.000189907
0.000191012
0.000191509
0.000191636
0.000191608
0.00019147
0.000191265
0.000191045
0.000190819
0.000190585
0.000190352
0.000190132
0.000189926
0.000189733
0.000189548
0.000189373
0.000189208
0.000189055
0.000188914
0.000188783
0.000188661
0.000188548
0.000188441
0.00018834
0.000188246
0.000188157
0.000188074
0.000187997
0.000187925
0.000187858
0.000187796
0.000187738
0.000187684
0.000187634
0.000187587
0.000187543
0.000187502
0.000187464
0.000187429
0.000187398
0.00018737
0.000187346
0.000187325
0.000187308
0.000187297
0.00018729
0.000187289
0.000187296
0.000187308
0.000187328
0.000187358
0.000187398
0.000187447
0.000187509
0.000187583
0.000187672
0.000187776
0.000187898
0.000188037
0.000188167
0.000188277
0.000188398
0.000188521
0.000188653
0.000188785
0.000188928
0.000189056
0.000189205
0.000189348
0.000189511
0.000189652
0.000189822
0.000189962
0.000190136
0.000190275
0.000190427
0.000190611
0.000190674
0.000190999
0.000190699
0.000191804
0.000189561
0.00019449
0.000178029
0.000161525
0.000208804
0.000232796
0.000243452
0.000249252
0.000252652
0.000254774
0.000256075
0.000256939
0.000257482
0.000257802
0.000258004
0.000258121
0.000258163
0.000258158
0.00025813
0.000258088
0.000258036
0.000257971
0.000257898
0.000257822
0.000257748
0.000257678
0.00025761
0.000257546
0.000257483
0.000257421
0.000257362
0.000257304
0.000257249
0.000257197
0.000257148
0.000257103
0.000257061
0.000257021
0.000256985
0.000256951
0.000256919
0.000256889
0.000256861
0.000256835
0.000256811
0.000256789
0.00025677
0.000256753
0.00025674
0.000256729
0.000256721
0.000256718
0.00025672
0.000256726
0.000256739
0.000256758
0.000256783
0.000256818
0.000256862
0.000256914
0.000256978
0.000257054
0.000257144
0.000257247
0.000257367
0.000257503
0.000257631
0.000257736
0.000257853
0.000257971
0.000258099
0.000258222
0.000258361
0.000258485
0.000258633
0.000258761
0.00025892
0.000259046
0.000259212
0.000259333
0.000259505
0.000259623
0.000259772
0.000259944
0.000259995
0.00026033
0.000260036
0.000261088
0.000259348
0.000262961
0.000249226
0.000180878
0.00024504
0.00028155
0.000299638
0.000310332
0.000317155
0.000321789
0.000324966
0.000327296
0.000328984
0.000330211
0.000331156
0.000331885
0.000332433
0.000332849
0.000333182
0.000333453
0.00033367
0.000333838
0.000333968
0.00033407
0.000334155
0.000334228
0.000334289
0.000334341
0.000334383
0.000334416
0.000334442
0.000334462
0.000334478
0.000334491
0.000334503
0.000334514
0.000334525
0.000334535
0.000334544
0.000334552
0.000334561
0.000334568
0.000334575
0.000334581
0.000334588
0.000334594
0.000334601
0.00033461
0.000334619
0.00033463
0.000334643
0.00033466
0.00033468
0.000334702
0.000334732
0.000334765
0.000334804
0.000334851
0.000334907
0.000334968
0.000335042
0.000335126
0.000335223
0.00033533
0.000335455
0.000335592
0.000335722
0.000335826
0.000335943
0.000336057
0.000336184
0.000336302
0.00033644
0.000336559
0.000336708
0.000336824
0.000336985
0.000337097
0.000337266
0.000337371
0.000337548
0.000337651
0.000337809
0.000337964
0.000338032
0.000338359
0.000338163
0.000339024
0.000338051
0.000340263
0.000327505
0.000192851
0.000275176
0.000327402
0.000355347
0.000372765
0.000384442
0.000392747
0.000398745
0.000403333
0.000406828
0.000409518
0.000411679
0.000413431
0.000414833
0.000415975
0.000416934
0.000417752
0.000418448
0.000419034
0.00041953
0.000419958
0.000420335
0.000420671
0.000420972
0.00042124
0.000421479
0.00042169
0.000421878
0.000422046
0.000422198
0.000422337
0.000422465
0.000422585
0.000422697
0.000422801
0.000422899
0.00042299
0.000423075
0.000423155
0.000423229
0.000423299
0.000423365
0.000423427
0.000423486
0.000423543
0.000423599
0.000423653
0.000423707
0.000423762
0.000423819
0.000423876
0.000423937
0.000424001
0.000424069
0.000424142
0.000424223
0.000424307
0.000424403
0.000424505
0.000424621
0.000424744
0.000424883
0.000425032
0.000425172
0.000425282
0.000425404
0.00042552
0.000425654
0.000425772
0.000425916
0.000426032
0.000426191
0.000426299
0.000426471
0.000426574
0.000426757
0.000426854
0.000427045
0.00042714
0.000427326
0.000427461
0.000427586
0.000427884
0.000427867
0.000428478
0.000428309
0.000429488
0.000416267
0.000195897
0.000296685
0.000368281
0.000408996
0.000435361
0.000453648
0.00046706
0.000477075
0.00048494
0.000491115
0.000496012
0.000500041
0.000503382
0.000506136
0.000508438
0.000510411
0.000512124
0.000513608
0.000514889
0.000516
0.000516978
0.000517852
0.000518639
0.000519351
0.000519993
0.000520572
0.000521094
0.000521565
0.000521994
0.000522386
0.000522747
0.000523083
0.000523395
0.000523687
0.00052396
0.000524215
0.000524454
0.000524678
0.000524887
0.000525083
0.000525266
0.000525439
0.000525601
0.000525755
0.000525901
0.000526041
0.000526175
0.000526304
0.000526429
0.000526553
0.000526673
0.000526795
0.000526916
0.000527038
0.000527161
0.00052729
0.00052742
0.000527559
0.0005277
0.000527855
0.000528012
0.000528186
0.000528364
0.000528531
0.000528657
0.000528799
0.000528928
0.00052908
0.000529208
0.000529372
0.000529494
0.000529676
0.000529787
0.000529986
0.000530092
0.000530302
0.000530406
0.000530629
0.000530734
0.00053097
0.000531093
0.000531332
0.000531557
0.000531785
0.000532196
0.000532671
0.000533454
0.000519018
0.00018844
0.000306205
0.000401035
0.000457943
0.000495941
0.00052296
0.000543225
0.000558714
0.000571116
0.000581055
0.000589104
0.000595835
0.000601506
0.000606265
0.00061031
0.000613821
0.000616901
0.000619602
0.000621964
0.000624041
0.000625888
0.000627551
0.000629058
0.000630429
0.000631674
0.000632805
0.000633832
0.000634768
0.000635624
0.000636412
0.00063714
0.000637818
0.000638451
0.000639042
0.000639595
0.000640114
0.000640599
0.000641054
0.00064148
0.00064188
0.000642255
0.000642608
0.00064294
0.000643255
0.000643551
0.000643834
0.000644103
0.00064436
0.000644607
0.000644846
0.000645075
0.000645301
0.00064552
0.000645737
0.000645949
0.000646164
0.000646375
0.000646592
0.000646807
0.000647034
0.000647257
0.000647499
0.000647737
0.000647958
0.000648122
0.000648304
0.000648466
0.000648658
0.000648816
0.000649022
0.000649169
0.000649397
0.000649531
0.000649781
0.00064991
0.000650175
0.000650305
0.000650591
0.000650726
0.000651046
0.000651195
0.000651574
0.00065177
0.000652293
0.00065259
0.000653542
0.00065428
0.000639021
0.000168009
0.0002997
0.000421269
0.000498282
0.00055113
0.000589453
0.000618681
0.000641411
0.000659873
0.000674898
0.000687255
0.000697717
0.000706635
0.00071422
0.000720745
0.000726464
0.000731522
0.000735996
0.000739946
0.000743451
0.000746592
0.000749437
0.000752027
0.000754394
0.000756555
0.000758527
0.000760328
0.000761978
0.000763494
0.000764895
0.000766195
0.000767407
0.000768538
0.000769599
0.000770591
0.000771523
0.000772396
0.000773217
0.000773986
0.000774709
0.000775388
0.000776028
0.000776631
0.000777201
0.000777739
0.000778251
0.000778736
0.0007792
0.000779641
0.000780067
0.000780473
0.000780868
0.000781248
0.00078162
0.000781978
0.000782336
0.000782681
0.000783031
0.00078337
0.00078372
0.000784059
0.000784419
0.000784767
0.000785084
0.000785318
0.000785574
0.000785801
0.000786067
0.000786284
0.000786566
0.00078677
0.000787077
0.000787264
0.000787602
0.000787782
0.000788144
0.000788329
0.000788723
0.000788918
0.000789368
0.000789581
0.000790134
0.00079039
0.000791162
0.000791532
0.000792758
0.000793786
0.000778211
0.000132153
0.000272641
0.000423208
0.000524569
0.000596072
0.0006488
0.000689556
0.000721673
0.000748044
0.000769754
0.000787821
0.000803263
0.000816548
0.00082796
0.000837872
0.000846624
0.000854417
0.000861356
0.000867528
0.000873046
0.000878021
0.000882547
0.000886687
0.000890483
0.000893962
0.000897153
0.000900079
0.00090277
0.000905253
0.000907555
0.000909696
0.000911697
0.000913568
0.000915323
0.00091697
0.000918517
0.00091997
0.000921336
0.00092262
0.000923828
0.000924965
0.000926037
0.000927048
0.000928005
0.000928909
0.000929769
0.000930584
0.000931361
0.000932101
0.000932811
0.000933489
0.000934144
0.000934772
0.000935383
0.000935969
0.000936547
0.000937103
0.000937659
0.000938195
0.000938741
0.000939267
0.000939814
0.000940342
0.000940814
0.000941165
0.000941542
0.000941877
0.000942262
0.000942584
0.000942985
0.00094329
0.00094372
0.000944006
0.000944475
0.000944745
0.000945261
0.000945534
0.000946094
0.000946386
0.000947019
0.000947343
0.00094811
0.000948497
0.000949521
0.000950072
0.000951525
0.000952952
0.000937072
7.98431e-05
0.000220289
0.000399957
0.000529536
0.000624055
0.000694894
0.000750287
0.000794405
0.000830941
0.000861282
0.000886765
0.000908708
0.000927715
0.000944171
0.000958571
0.000971363
0.000982812
0.000993061
0.00100223
0.00101048
0.00101795
0.00102478
0.00103104
0.00103681
0.00104211
0.00104698
0.00105147
0.00105562
0.00105946
0.00106302
0.00106635
0.00106946
0.00107238
0.00107512
0.00107769
0.00108012
0.00108239
0.00108454
0.00108656
0.00108846
0.00109025
0.00109195
0.00109355
0.00109506
0.0010965
0.00109786
0.00109915
0.00110038
0.00110156
0.00110268
0.00110375
0.00110479
0.00110578
0.00110674
0.00110766
0.00110856
0.00110943
0.00111029
0.00111112
0.00111195
0.00111276
0.00111358
0.00111438
0.00111508
0.00111561
0.00111616
0.00111666
0.00111722
0.0011177
0.00111828
0.00111874
0.00111934
0.00111978
0.00112043
0.00112085
0.00112156
0.00112197
0.00112276
0.00112319
0.00112406
0.00112454
0.00112557
0.00112614
0.00112745
0.00112822
0.00112993
0.00113172
0.00111558
3.43128e-05
0.000143165
0.000341978
0.0005041
0.000626079
0.000719357
0.000793121
0.000852419
0.000901874
0.000943222
0.00097821
0.00100851
0.0010349
0.00105788
0.00107811
0.00109617
0.0011124
0.00112698
0.0011401
0.00115194
0.00116272
0.0011726
0.00118169
0.00119008
0.00119782
0.00120496
0.00121155
0.00121765
0.00122332
0.0012286
0.00123353
0.00123816
0.0012425
0.00124658
0.00125042
0.00125405
0.00125745
0.00126067
0.0012637
0.00126656
0.00126926
0.00127181
0.00127422
0.00127651
0.00127867
0.00128073
0.00128269
0.00128456
0.00128633
0.00128803
0.00128966
0.00129122
0.00129272
0.00129417
0.00129555
0.00129691
0.00129821
0.0012995
0.00130073
0.00130197
0.00130317
0.00130438
0.00130555
0.00130657
0.00130734
0.00130814
0.00130887
0.00130967
0.00131037
0.00131118
0.00131185
0.00131268
0.00131334
0.00131421
0.00131484
0.00131579
0.0013164
0.00131745
0.00131806
0.00131923
0.0013199
0.00132123
0.00132201
0.00132362
0.00132464
0.00132663
0.00132868
0.00131259
4.14417e-06
4.61672e-05
0.00023789
0.000436084
0.000590821
0.000711024
0.000807501
0.000885808
0.000951536
0.00100679
0.00105384
0.00109479
0.00113058
0.0011619
0.00118961
0.00121444
0.00123682
0.001257
0.00127521
0.00129172
0.00130679
0.00132064
0.00133342
0.00134523
0.00135615
0.00136625
0.0013756
0.00138427
0.00139235
0.00139989
0.00140694
0.00141357
0.0014198
0.00142566
0.00143119
0.0014364
0.00144131
0.00144595
0.00145033
0.00145446
0.00145837
0.00146207
0.00146557
0.00146889
0.00147204
0.00147504
0.00147788
0.0014806
0.00148319
0.00148567
0.00148803
0.00149031
0.00149249
0.00149459
0.00149661
0.00149857
0.00150046
0.00150231
0.00150409
0.00150587
0.00150758
0.0015093
0.00151097
0.00151241
0.0015135
0.00151461
0.00151564
0.00151673
0.00151773
0.00151881
0.00151977
0.00152087
0.0015218
0.00152293
0.00152384
0.00152504
0.00152592
0.00152722
0.00152811
0.00152953
0.00153046
0.00153207
0.00153311
0.00153498
0.00153634
0.00153848
0.00154072
0.00152523
1.67193e-07
2.60435e-06
8.0795e-05
0.00031017
0.000502651
0.000655479
0.000779568
0.000881201
0.000967225
0.00103987
0.00110212
0.00115652
0.0012042
0.00124609
0.00128332
0.00131678
0.001347
0.0013743
0.00139901
0.00142149
0.00144207
0.00146103
0.00147855
0.00149477
0.00150978
0.00152369
0.00153659
0.0015486
0.00155978
0.00157025
0.00158006
0.00158929
0.00159797
0.00160615
0.00161386
0.00162114
0.00162802
0.00163451
0.00164064
0.00164644
0.00165193
0.00165712
0.00166205
0.00166672
0.00167116
0.00167538
0.0016794
0.00168323
0.00168688
0.00169038
0.00169372
0.00169692
0.00169999
0.00170295
0.00170579
0.00170854
0.00171119
0.00171378
0.00171627
0.00171873
0.0017211
0.00172348
0.00172577
0.00172772
0.00172921
0.0017307
0.00173211
0.00173355
0.0017349
0.00173631
0.0017376
0.00173901
0.00174026
0.00174169
0.00174291
0.00174437
0.00174558
0.00174711
0.00174832
0.00174996
0.00175122
0.00175302
0.0017544
0.00175639
0.00175809
0.00176031
0.00176267
0.00174845
2.58895e-08
7.61111e-08
1.92303e-06
9.5577e-05
0.000341853
0.000532833
0.000690641
0.000821238
0.000932187
0.0010262
0.00110736
0.00117865
0.00124124
0.00129642
0.00134566
0.00139004
0.00143018
0.00146651
0.00149946
0.00152952
0.00155711
0.00158257
0.00160613
0.00162796
0.00164819
0.00166696
0.00168439
0.00170064
0.00171581
0.00173003
0.00174337
0.00175593
0.00176775
0.00177891
0.00178943
0.00179937
0.00180876
0.00181763
0.00182602
0.00183396
0.00184147
0.0018486
0.00185535
0.00186177
0.00186787
0.00187367
0.00187919
0.00188446
0.00188948
0.00189429
0.00189888
0.00190329
0.0019075
0.00191156
0.00191545
0.00191921
0.00192282
0.00192634
0.00192972
0.00193304
0.00193624
0.00193941
0.00194248
0.00194506
0.00194702
0.00194896
0.00195081
0.00195266
0.00195441
0.0019562
0.00195787
0.00195961
0.00196122
0.00196295
0.00196451
0.00196624
0.00196778
0.00196953
0.00197108
0.00197289
0.00197449
0.0019764
0.00197811
0.00198016
0.00198211
0.00198432
0.00198674
0.00197445
1.6297e-08
1.91936e-08
3.98332e-08
9.79714e-07
7.16987e-05
0.000311596
0.000515955
0.000681496
0.000823651
0.000944191
0.00104896
0.00114111
0.0012221
0.00129378
0.00135811
0.00141625
0.00146887
0.00151652
0.00155984
0.00159946
0.00163593
0.00166963
0.00170083
0.00172975
0.00175658
0.00178149
0.00180467
0.0018263
0.00184653
0.00186551
0.00188335
0.00190015
0.00191597
0.00193091
0.00194501
0.00195833
0.00197092
0.00198282
0.00199407
0.00200474
0.00201483
0.00202441
0.0020335
0.00204214
0.00205034
0.00205816
0.0020656
0.00207271
0.00207948
0.00208595
0.00209214
0.00209806
0.00210373
0.00210918
0.00211439
0.00211943
0.00212425
0.00212893
0.00213343
0.00213781
0.00214202
0.00214616
0.00215016
0.00215346
0.00215599
0.00215846
0.00216081
0.00216313
0.00216533
0.00216753
0.00216961
0.00217171
0.0021737
0.00217573
0.00217764
0.00217962
0.00218148
0.00218343
0.00218528
0.00218723
0.0021891
0.00219108
0.00219303
0.00219507
0.00219719
0.00219929
0.00220173
0.00219181
1.53034e-08
1.54651e-08
1.63949e-08
2.44739e-08
2.44096e-07
2.16184e-05
0.000194779
0.00042694
0.000611548
0.000763689
0.00089807
0.00101668
0.00112063
0.00121301
0.00129613
0.00137136
0.00143944
0.00150113
0.00155736
0.001609
0.00165665
0.00170074
0.00174157
0.00177942
0.00181453
0.00184717
0.00187758
0.00190599
0.00193261
0.00195762
0.00198114
0.0020033
0.0020242
0.00204392
0.00206254
0.00208013
0.00209675
0.00211248
0.00212736
0.00214146
0.00215482
0.0021675
0.00217953
0.00219098
0.00220186
0.00221223
0.0022221
0.00223153
0.00224051
0.00224909
0.00225729
0.00226514
0.00227263
0.00227983
0.00228671
0.00229334
0.00229968
0.0023058
0.00231166
0.00231734
0.00232279
0.00232809
0.0023332
0.00233737
0.00234055
0.00234362
0.00234655
0.00234939
0.0023521
0.00235474
0.00235726
0.00235974
0.0023621
0.00236444
0.00236668
0.0023689
0.00237104
0.00237318
0.00237525
0.00237732
0.00237937
0.00238139
0.00238348
0.00238546
0.00238765
0.00238955
0.00239196
0.00238411
1.52007e-08
1.50902e-08
1.50823e-08
1.53179e-08
1.7713e-08
4.80147e-08
1.13017e-06
4.40397e-05
0.000222928
0.000431841
0.000615871
0.000768926
0.0009003
0.00101826
0.00112563
0.0012227
0.00131018
0.00138941
0.00146187
0.00152852
0.00159014
0.00164718
0.00169999
0.00174892
0.00179432
0.00183657
0.00187599
0.00191292
0.00194759
0.0019802
0.0020109
0.00203983
0.00206711
0.00209285
0.00211715
0.00214011
0.0021618
0.00218233
0.00220175
0.00222017
0.00223763
0.00225421
0.00226996
0.00228494
0.00229919
0.00231277
0.00232571
0.00233805
0.00234982
0.00236107
0.0023718
0.00238206
0.00239185
0.00240123
0.00241018
0.00241876
0.00242696
0.00243483
0.00244236
0.00244958
0.0024565
0.00246316
0.00246954
0.00247468
0.00247858
0.00248231
0.00248584
0.00248922
0.00249243
0.0024955
0.00249843
0.00250124
0.00250391
0.00250649
0.00250895
0.00251132
0.0025136
0.00251579
0.00251791
0.00251995
0.00252196
0.00252385
0.00252579
0.00252751
0.00252948
0.00253092
0.00253314
0.00252954
1.52077e-08
1.51207e-08
1.50772e-08
1.49892e-08
1.50196e-08
1.54926e-08
1.9074e-08
5.16679e-08
7.61169e-07
2.0226e-05
0.00013939
0.000314897
0.00049189
0.000656609
0.000801177
0.00092646
0.00103718
0.00113765
0.00123041
0.00131653
0.00139627
0.0014699
0.00153782
0.00160061
0.00165885
0.00171313
0.00176391
0.00181152
0.00185625
0.00189837
0.00193803
0.00197542
0.00201066
0.0020439
0.00207526
0.00210488
0.00213287
0.00215936
0.00218444
0.00220823
0.0022308
0.00225225
0.00227264
0.00229207
0.00231056
0.00232818
0.00234498
0.002361
0.00237628
0.00239086
0.00240477
0.00241806
0.00243073
0.00244285
0.00245439
0.00246541
0.0024759
0.00248591
0.00249543
0.00250452
0.00251315
0.00252138
0.0025292
0.0025354
0.00254008
0.00254448
0.00254862
0.00255253
0.00255619
0.00255965
0.00256288
0.00256594
0.00256879
0.00257149
0.002574
0.00257638
0.00257858
0.00258068
0.0025826
0.00258446
0.00258611
0.00258777
0.00258918
0.00259068
0.00259182
0.00259326
0.00259407
0.00259561
1.52197e-08
1.51661e-08
1.51271e-08
1.50695e-08
1.50306e-08
1.49867e-08
1.50272e-08
1.53853e-08
1.73448e-08
2.81395e-08
1.15705e-07
1.42279e-06
1.89655e-05
0.000109761
0.00024271
0.000384052
0.000528526
0.000668665
0.000798698
0.000916283
0.00102165
0.00111642
0.00120259
0.00128195
0.00135581
0.00142508
0.00149026
0.00155172
0.0016096
0.00166409
0.00171532
0.00176351
0.00180882
0.00185147
0.00189166
0.00192959
0.00196543
0.00199936
0.00203151
0.00206203
0.00209102
0.0021186
0.00214483
0.0021698
0.00219359
0.00221626
0.00223787
0.00225848
0.00227812
0.00229687
0.00231473
0.00233176
0.002348
0.00236347
0.0023782
0.00239223
0.00240557
0.00241825
0.00243028
0.00244169
0.0024525
0.00246271
0.00247234
0.00247991
0.00248558
0.00249088
0.00249581
0.00250042
0.0025047
0.00250868
0.00251236
0.00251578
0.00251894
0.00252186
0.00252453
0.002527
0.00252924
0.0025313
0.00253315
0.00253485
0.00253635
0.00253772
0.00253891
0.00253999
0.0025409
0.00254172
0.00254242
0.00254756
1.52279e-08
1.51899e-08
1.51683e-08
1.5127e-08
1.51061e-08
1.50656e-08
1.50454e-08
1.50133e-08
1.50276e-08
1.50968e-08
1.57463e-08
1.71476e-08
2.62258e-08
5.44804e-08
2.89451e-07
1.98286e-06
1.57362e-05
6.9249e-05
0.000157836
0.000256668
0.000360809
0.000468997
0.000578501
0.000686314
0.000789943
0.00088779
0.000979013
0.00106347
0.00114138
0.00121329
0.00127978
0.00134152
0.00139908
0.00145301
0.00150373
0.00155164
0.001597
0.00164007
0.00168103
0.00172003
0.00175719
0.00179261
0.00182639
0.00185861
0.00188931
0.00191859
0.00194649
0.00197307
0.00199838
0.00202249
0.00204543
0.00206726
0.002088
0.00210772
0.00212643
0.00214419
0.00216102
0.00217696
0.00219202
0.00220624
0.00221961
0.00223217
0.00224391
0.00225305
0.00225983
0.00226611
0.00227191
0.00227725
0.00228216
0.00228666
0.00229076
0.00229449
0.00229788
0.00230092
0.00230365
0.00230607
0.00230821
0.00231007
0.00231169
0.00231304
0.0023142
0.0023151
0.00231586
0.00231635
0.00231679
0.00231691
0.00231732
0.00232685
1.52332e-08
1.52102e-08
1.5191e-08
1.51683e-08
1.51498e-08
1.51289e-08
1.51111e-08
1.50913e-08
1.50734e-08
1.50566e-08
1.50461e-08
1.5055e-08
1.51323e-08
1.5288e-08
1.59743e-08
1.71935e-08
2.14483e-08
3.14079e-08
6.59511e-08
1.96315e-07
7.98776e-07
3.5871e-06
1.42932e-05
4.3013e-05
9.21885e-05
0.000152628
0.000217035
0.000283777
0.000352622
0.00042331
0.000495121
0.000567293
0.00063896
0.000709436
0.000778083
0.000844475
0.000908255
0.000969245
0.00102731
0.00108245
0.00113467
0.00118406
0.00123073
0.0012748
0.0013164
0.00135568
0.00139276
0.0014278
0.0014609
0.00149219
0.00152177
0.00154974
0.00157618
0.00160119
0.00162481
0.00164712
0.00166816
0.00168798
0.00170662
0.0017241
0.00174045
0.00175568
0.00176979
0.00178065
0.00178864
0.00179598
0.00180266
0.00180876
0.00181426
0.00181924
0.00182368
0.00182764
0.00183112
0.00183418
0.00183679
0.00183904
0.00184087
0.00184239
0.00184354
0.00184442
0.00184496
0.0018453
0.00184527
0.00184511
0.00184478
0.00184386
0.00184391
0.00185873
1.52369e-08
1.52213e-08
1.52115e-08
1.51947e-08
1.51855e-08
1.51699e-08
1.51613e-08
1.51467e-08
1.51387e-08
1.5125e-08
1.51167e-08
1.5104e-08
1.50972e-08
1.50888e-08
1.50904e-08
1.50977e-08
1.51272e-08
1.51827e-08
1.53264e-08
1.55841e-08
1.61581e-08
1.72256e-08
1.95836e-08
2.35059e-08
3.25284e-08
5.03212e-08
9.25618e-08
1.91123e-07
4.43632e-07
1.07336e-06
2.64087e-06
6.2146e-06
1.36483e-05
2.69072e-05
4.72531e-05
7.37993e-05
0.000104688
0.000137705
0.000171753
0.000206097
0.000240681
0.000275335
0.00031012
0.000344912
0.000379688
0.000414315
0.000448705
0.000482741
0.000516306
0.000549314
0.000581641
0.000613233
0.000643967
0.000673825
0.000702682
0.000730552
0.000757294
0.000782736
0.000806937
0.000829734
0.000851196
0.000871151
0.000889687
0.000903818
0.000914202
0.000923616
0.000932175
0.000939837
0.000946726
0.000952791
0.000958164
0.000962784
0.000966793
0.000970118
0.000972912
0.000975089
0.000976813
0.000977983
0.000978779
0.000979083
0.000978975
0.000978645
0.00097788
0.000977107
0.000975577
0.000974488
0.000972318
0.000990065
1.52396e-08
1.52354e-08
1.52284e-08
1.52238e-08
1.52174e-08
1.52132e-08
1.52071e-08
1.52033e-08
1.51975e-08
1.51939e-08
1.51885e-08
1.51852e-08
1.518e-08
1.51763e-08
1.51715e-08
1.51683e-08
1.51642e-08
1.5162e-08