/*--------------------------------*- C++ -*----------------------------------*\
| =========                 |                                                 |
| \\      /  F ield         | OpenFOAM: The Open Source CFD Toolbox           |
|  \\    /   O peration     | Version:  v2006                                 |
|   \\  /    A nd           | Website:  www.openfoam.com                      |
|    \\/     M anipulation  |                                                 |
\*---------------------------------------------------------------------------*/
FoamFile
{
    version     2.0;
    format      ascii;
    class       volScalarField;
    location    "10000";
    object      nut;
}
// * * * * * * * * * * * * * * * * * * * * * * * * * * * * * * * * * * * * * //

dimensions      [0 2 -1 0 0 0 0];


internalField   nonuniform List<scalar> 
20540
(
9.78934e-07
0.000151145
9.95378e-07
0.000151378
1.03689e-06
0.000151909
1.11537e-06
0.000152783
1.24672e-06
0.000154005
1.45044e-06
0.000155496
1.74549e-06
0.00015703
2.13761e-06
0.000158134
2.5933e-06
0.000158045
3.00386e-06
0.000155787
3.17148e-06
0.000149839
2.87045e-06
0.000138076
2.03332e-06
0.000117631
9.84112e-07
8.52405e-05
2.80373e-07
4.10683e-05
5.52911e-08
5.85833e-06
2.16365e-08
3.1745e-07
1.66802e-08
3.33769e-08
1.56525e-08
1.76754e-08
1.52801e-08
1.54703e-08
1.52621e-08
1.53098e-08
1.52427e-08
1.52496e-08
1.5245e-08
1.52451e-08
1.52455e-08
1.52451e-08
1.52453e-08
1.5245e-08
1.5245e-08
1.52447e-08
1.52446e-08
1.52443e-08
1.52442e-08
1.52438e-08
1.52437e-08
1.52432e-08
1.52431e-08
1.52424e-08
1.52424e-08
1.52415e-08
1.52417e-08
1.52409e-08
1.52417e-08
1.52409e-08
1.52424e-08
1.52415e-08
1.52431e-08
1.52423e-08
1.52437e-08
1.52432e-08
1.52442e-08
1.52438e-08
1.52446e-08
1.52442e-08
1.5245e-08
1.52446e-08
1.52453e-08
1.52449e-08
1.52457e-08
1.52448e-08
1.52445e-08
1.52449e-08
1.52421e-08
1.52465e-08
1.52425e-08
1.52829e-08
1.52456e-08
1.54076e-08
1.53667e-08
1.63142e-08
1.56784e-08
2.16827e-08
1.86496e-08
9.96738e-08
2.85132e-08
1.65294e-06
1.19272e-07
2.00744e-05
5.23412e-07
6.39961e-05
1.39234e-06
0.000101815
2.37854e-06
0.000127705
3.00481e-06
0.000143759
3.12284e-06
0.000152825
2.86871e-06
0.000157219
2.44833e-06
0.00015866
2.02041e-06
0.000158361
1.66327e-06
0.000157116
1.39704e-06
0.00015559
1.2131e-06
0.000154162
1.09388e-06
0.000153007
1.02213e-06
0.000152184
9.83874e-07
0.000151685
9.68598e-07
0.000151465
8.57975e-09
5.63875e-09
4.97679e-09
4.63098e-09
4.42582e-09
4.29402e-09
4.20331e-09
4.13702e-09
4.08787e-09
4.05052e-09
4.0213e-09
3.9982e-09
3.97975e-09
3.96478e-09
3.95249e-09
3.94235e-09
3.93395e-09
3.92696e-09
3.92109e-09
3.91614e-09
3.91193e-09
3.90836e-09
3.90531e-09
3.90272e-09
3.9005e-09
3.89861e-09
3.89697e-09
3.89661e-09
3.89701e-09
3.89634e-09
3.89728e-09
3.90001e-09
3.89641e-09
3.89538e-09
3.90112e-09
3.89565e-09
3.89476e-09
3.90155e-09
3.89576e-09
3.89505e-09
3.90285e-09
3.89919e-09
3.8993e-09
3.90514e-09
3.90221e-09
3.9024e-09
3.90572e-09
3.90559e-09
3.90727e-09
3.91377e-09
3.90732e-09
3.90443e-09
3.91322e-09
3.91341e-09
3.92884e-09
3.91629e-09
3.91027e-09
3.92128e-09
3.9205e-09
3.9207e-09
3.92053e-09
3.92771e-09
3.92824e-09
3.93282e-09
3.93482e-09
3.94106e-09
3.9456e-09
3.95287e-09
3.96077e-09
3.96944e-09
3.97893e-09
3.98921e-09
4.00051e-09
4.01259e-09
4.02606e-09
4.04019e-09
4.05642e-09
4.07445e-09
4.11355e-09
4.20267e-09
1.09755e-08
1.14196e-08
1.16078e-08
1.18766e-08
1.2112e-08
1.25483e-08
1.2623e-08
1.44534e-08
9.11517e-07
6.4532e-07
5.62861e-07
5.19825e-07
4.93893e-07
4.76861e-07
4.64808e-07
4.55709e-07
4.48705e-07
4.43166e-07
4.38652e-07
4.34922e-07
4.31804e-07
4.29155e-07
4.26874e-07
4.24897e-07
4.23176e-07
4.21669e-07
4.20338e-07
4.19153e-07
4.18093e-07
4.17142e-07
4.16287e-07
4.15518e-07
4.14822e-07
4.14192e-07
4.13617e-07
4.13131e-07
4.12708e-07
4.12287e-07
4.12251e-07
4.1237e-07
4.11612e-07
4.11272e-07
4.11606e-07
4.10808e-07
4.10534e-07
4.11009e-07
4.10218e-07
4.1e-07
4.10649e-07
4.10008e-07
4.09937e-07
4.10649e-07
4.10122e-07
4.1009e-07
4.1064e-07
4.1054e-07
4.10636e-07
4.11462e-07
4.10657e-07
4.10235e-07
4.11202e-07
4.11491e-07
4.13167e-07
4.12244e-07
4.11967e-07
4.13007e-07
4.13197e-07
4.14014e-07
4.1451e-07
4.15768e-07
4.16579e-07
4.17903e-07
4.1949e-07
4.20789e-07
4.22076e-07
4.23549e-07
4.2512e-07
4.26788e-07
4.28566e-07
4.30438e-07
4.32443e-07
4.34533e-07
4.36802e-07
4.39123e-07
4.41722e-07
4.44333e-07
4.4876e-07
4.59832e-07
6.92005e-07
7.12671e-07
7.20975e-07
7.31875e-07
7.40125e-07
7.47302e-07
7.5705e-07
7.83319e-07
1.21313e-05
9.30356e-06
7.9597e-06
7.20294e-06
6.72121e-06
6.39159e-06
6.1516e-06
5.96601e-06
5.82016e-06
5.70262e-06
5.60524e-06
5.52366e-06
5.45458e-06
5.39512e-06
5.3433e-06
5.29793e-06
5.25806e-06
5.22281e-06
5.19137e-06
5.16313e-06
5.13766e-06
5.11464e-06
5.09379e-06
5.07489e-06
5.05769e-06
5.04198e-06
5.02758e-06
5.01443e-06
5.00237e-06
4.99115e-06
4.98193e-06
4.97376e-06
4.9635e-06
4.95528e-06
4.94947e-06
4.94071e-06
4.93417e-06
4.93018e-06
4.92272e-06
4.91759e-06
4.9156e-06
4.90972e-06
4.90675e-06
4.90684e-06
4.90193e-06
4.89959e-06
4.90032e-06
4.8983e-06
4.89827e-06
4.90307e-06
4.89967e-06
4.89848e-06
4.90486e-06
4.90805e-06
4.9174e-06
4.92002e-06
4.92568e-06
4.93701e-06
4.94829e-06
4.96307e-06
4.9795e-06
5.00029e-06
5.02327e-06
5.04808e-06
5.07149e-06
5.09365e-06
5.11677e-06
5.14156e-06
5.16777e-06
5.19542e-06
5.22456e-06
5.25506e-06
5.28724e-06
5.32056e-06
5.35605e-06
5.39209e-06
5.43138e-06
5.46993e-06
5.51744e-06
5.58412e-06
6.15166e-06
6.2676e-06
6.32778e-06
6.39214e-06
6.45054e-06
6.43395e-06
6.63421e-06
5.95544e-06
4.04302e-05
3.99949e-05
3.80036e-05
3.6206e-05
3.48217e-05
3.3753e-05
3.29106e-05
3.2216e-05
3.16452e-05
3.11667e-05
3.0757e-05
3.04056e-05
3.01016e-05
2.98346e-05
2.9598e-05
2.93881e-05
2.92016e-05
2.90348e-05
2.88844e-05
2.87481e-05
2.8624e-05
2.85111e-05
2.84084e-05
2.83146e-05
2.82288e-05
2.815e-05
2.80773e-05
2.80102e-05
2.7948e-05
2.78903e-05
2.78374e-05
2.77884e-05
2.77414e-05
2.76985e-05
2.76596e-05
2.76215e-05
2.75869e-05
2.7556e-05
2.7525e-05
2.74974e-05
2.74733e-05
2.7449e-05
2.74279e-05
2.74107e-05
2.73927e-05
2.73777e-05
2.7367e-05
2.73573e-05
2.73505e-05
2.73516e-05
2.73491e-05
2.73509e-05
2.73634e-05
2.73768e-05
2.74e-05
2.74236e-05
2.74559e-05
2.74982e-05
2.75484e-05
2.76087e-05
2.76797e-05
2.77629e-05
2.7859e-05
2.79515e-05
2.80335e-05
2.81192e-05
2.82086e-05
2.83031e-05
2.84018e-05
2.85055e-05
2.86129e-05
2.87252e-05
2.88408e-05
2.89608e-05
2.90844e-05
2.92107e-05
2.93421e-05
2.94732e-05
2.96146e-05
2.97685e-05
3.0147e-05
3.0306e-05
3.0496e-05
3.05617e-05
3.08613e-05
3.02349e-05
3.24626e-05
2.34281e-05
7.51217e-05
8.31483e-05
8.40304e-05
8.30165e-05
8.18422e-05
8.07624e-05
7.98249e-05
7.899e-05
7.82732e-05
7.76474e-05
7.70929e-05
7.66073e-05
7.61795e-05
7.57962e-05
7.54511e-05
7.51418e-05
7.48647e-05
7.46147e-05
7.43872e-05
7.41792e-05
7.39887e-05
7.38146e-05
7.36555e-05
7.351e-05
7.33763e-05
7.3253e-05
7.31389e-05
7.3033e-05
7.29345e-05
7.28429e-05
7.27578e-05
7.26788e-05
7.2605e-05
7.25364e-05
7.24728e-05
7.24133e-05
7.23579e-05
7.23066e-05
7.22584e-05
7.22137e-05
7.21724e-05
7.21342e-05
7.2099e-05
7.20672e-05
7.20392e-05
7.20142e-05
7.19929e-05
7.19763e-05
7.19636e-05
7.19574e-05
7.19549e-05
7.1958e-05
7.197e-05
7.19888e-05
7.20165e-05
7.20524e-05
7.20984e-05
7.21567e-05
7.22276e-05
7.23123e-05
7.24126e-05
7.25292e-05
7.26639e-05
7.27901e-05
7.29005e-05
7.30191e-05
7.31421e-05
7.32722e-05
7.34063e-05
7.3548e-05
7.3692e-05
7.38443e-05
7.39967e-05
7.4158e-05
7.43177e-05
7.44859e-05
7.46507e-05
7.48237e-05
7.49931e-05
7.51643e-05
7.53695e-05
7.54937e-05
7.57544e-05
7.56739e-05
7.63708e-05
7.4668e-05
7.94678e-05
6.04228e-05
0.000109391
0.000129126
0.000135651
0.000137064
0.000137185
0.00013685
0.000136371
0.000135817
0.000135287
0.00013478
0.000134297
0.000133859
0.00013346
0.000133091
0.00013275
0.000132439
0.000132158
0.000131901
0.000131665
0.000131445
0.000131243
0.000131057
0.000130886
0.00013073
0.000130585
0.000130452
0.000130327
0.000130211
0.000130103
0.000130002
0.000129908
0.00012982
0.000129738
0.000129663
0.000129592
0.000129526
0.000129465
0.000129408
0.000129354
0.000129305
0.000129258
0.000129216
0.000129176
0.00012914
0.000129109
0.000129081
0.000129056
0.000129037
0.000129022
0.000129014
0.000129011
0.000129013
0.000129025
0.000129045
0.000129074
0.000129113
0.000129162
0.000129224
0.0001293
0.000129391
0.000129498
0.000129622
0.000129766
0.000129899
0.000130015
0.000130141
0.00013027
0.000130407
0.000130547
0.000130696
0.000130844
0.000131004
0.000131159
0.000131327
0.000131486
0.000131662
0.000131822
0.000132002
0.000132163
0.00013233
0.000132509
0.000132594
0.000132903
0.000132673
0.00013369
0.000131357
0.000137054
0.000116987
0.000140121
0.000173488
0.000187839
0.00019315
0.000195577
0.000196705
0.00019722
0.000197354
0.00019733
0.000197195
0.00019699
0.000196768
0.000196541
0.000196306
0.000196071
0.000195848
0.00019564
0.000195445
0.000195258
0.000195081
0.000194914
0.000194759
0.000194616
0.000194483
0.00019436
0.000194245
0.000194137
0.000194035
0.000193939
0.000193849
0.000193765
0.000193687
0.000193614
0.000193546
0.000193483
0.000193424
0.000193369
0.000193318
0.00019327
0.000193226
0.000193184
0.000193146
0.00019311
0.000193078
0.00019305
0.000193025
0.000193003
0.000192987
0.000192975
0.000192968
0.000192968
0.000192972
0.000192986
0.000193007
0.000193037
0.000193077
0.000193126
0.000193189
0.000193264
0.000193354
0.000193459
0.000193581
0.000193722
0.000193854
0.000193965
0.000194087
0.000194212
0.000194346
0.000194479
0.000194624
0.000194763
0.000194918
0.000195061
0.000195226
0.00019537
0.000195541
0.000195683
0.000195859
0.000196
0.000196155
0.000196337
0.000196395
0.000196731
0.000196419
0.000197562
0.00019526
0.000200316
0.000183621
0.000165792
0.000214623
0.00023907
0.000249932
0.000255849
0.000259315
0.000261486
0.000262817
0.000263702
0.00026426
0.00026459
0.000264798
0.000264919
0.000264966
0.000264962
0.000264934
0.000264893
0.00026484
0.000264776
0.000264702
0.000264626
0.000264551
0.000264479
0.000264411
0.000264346
0.000264282
0.00026422
0.000264159
0.000264101
0.000264045
0.000263992
0.000263943
0.000263896
0.000263853
0.000263813
0.000263776
0.000263741
0.000263709
0.000263679
0.00026365
0.000263624
0.0002636
0.000263578
0.000263558
0.000263541
0.000263527
0.000263515
0.000263508
0.000263505
0.000263506
0.000263513
0.000263524
0.000263544
0.000263571
0.000263606
0.00026365
0.000263702
0.000263768
0.000263844
0.000263935
0.00026404
0.000264161
0.000264299
0.000264429
0.000264536
0.000264654
0.000264774
0.000264904
0.000265029
0.00026517
0.000265299
0.00026545
0.00026558
0.000265741
0.000265869
0.000266038
0.000266161
0.000266336
0.000266457
0.000266607
0.000266784
0.000266834
0.00026718
0.000266874
0.000267961
0.000266175
0.000269874
0.000255918
0.000185228
0.000251385
0.000288613
0.000307064
0.000317984
0.000324946
0.000329684
0.000332933
0.000335315
0.000337045
0.000338301
0.000339267
0.000340015
0.000340577
0.000341004
0.000341344
0.000341621
0.000341844
0.000342018
0.000342151
0.000342256
0.000342343
0.000342417
0.000342481
0.000342534
0.000342577
0.000342612
0.000342638
0.000342659
0.000342676
0.000342689
0.000342702
0.000342713
0.000342724
0.000342734
0.000342743
0.000342752
0.00034276
0.000342768
0.000342775
0.000342782
0.000342789
0.000342795
0.000342802
0.000342811
0.000342821
0.000342831
0.000342845
0.000342861
0.000342881
0.000342906
0.000342933
0.000342967
0.000343008
0.000343056
0.000343112
0.000343175
0.00034325
0.000343335
0.000343433
0.000343543
0.000343669
0.000343809
0.000343941
0.000344047
0.000344165
0.000344281
0.000344411
0.000344531
0.000344672
0.000344793
0.000344945
0.000345063
0.000345226
0.00034534
0.000345513
0.00034562
0.0003458
0.000345906
0.000346066
0.000346228
0.000346296
0.000346633
0.000346429
0.000347316
0.000346319
0.000348574
0.000335571
0.000197154
0.000281953
0.000335246
0.000363775
0.000381572
0.000393499
0.000401994
0.000408129
0.000412822
0.000416402
0.000419154
0.000421366
0.000423159
0.000424596
0.000425765
0.000426746
0.000427583
0.000428296
0.000428897
0.000429405
0.000429843
0.000430229
0.000430572
0.00043088
0.000431155
0.0004314
0.000431616
0.000431809
0.000431981
0.000432136
0.000432279
0.00043241
0.000432532
0.000432647
0.000432753
0.000432853
0.000432946
0.000433033
0.000433115
0.000433191
0.000433262
0.00043333
0.000433393
0.000433454
0.000433512
0.00043357
0.000433625
0.000433681
0.000433736
0.000433793
0.000433853
0.000433914
0.000433978
0.000434049
0.000434123
0.000434206
0.000434292
0.000434389
0.000434493
0.000434611
0.000434736
0.000434878
0.00043503
0.000435173
0.000435284
0.000435409
0.000435527
0.000435664
0.000435784
0.000435932
0.000436049
0.00043621
0.000436321
0.000436496
0.000436601
0.000436787
0.000436886
0.000437082
0.00043718
0.000437368
0.000437509
0.000437636
0.000437943
0.000437924
0.000438549
0.000438378
0.00043957
0.000426061
0.000199998
0.000303733
0.000376833
0.000418416
0.000445369
0.000464056
0.000477781
0.000488027
0.000496075
0.000502399
0.000507411
0.000511534
0.000514955
0.000517776
0.000520133
0.000522152
0.000523905
0.000525425
0.000526737
0.000527876
0.000528877
0.000529771
0.000530576
0.000531304
0.000531962
0.000532556
0.00053309
0.000533573
0.000534012
0.000534414
0.000534784
0.000535127
0.000535447
0.000535745
0.000536024
0.000536285
0.000536529
0.000536758
0.000536972
0.000537173
0.000537361
0.000537538
0.000537704
0.000537862
0.000538011
0.000538155
0.000538291
0.000538424
0.000538551
0.000538677
0.000538802
0.000538924
0.000539047
0.000539172
0.000539299
0.000539431
0.000539563
0.000539705
0.000539849
0.000540007
0.000540167
0.000540345
0.000540527
0.000540697
0.000540825
0.00054097
0.000541101
0.000541257
0.000541388
0.000541556
0.00054168
0.000541865
0.000541978
0.000542181
0.00054229
0.000542504
0.00054261
0.000542838
0.000542945
0.000543185
0.000543312
0.000543556
0.000543788
0.00054402
0.000544437
0.000544925
0.000545706
0.000530937
0.000192182
0.000313291
0.000410127
0.000468265
0.000507119
0.000534738
0.000555479
0.000571329
0.00058402
0.0005942
0.000602439
0.000609327
0.000615133
0.000620008
0.000624149
0.000627742
0.000630895
0.000633661
0.000636081
0.000638208
0.000640099
0.000641801
0.000643344
0.000644747
0.000646022
0.000647181
0.000648233
0.000649192
0.000650068
0.000650875
0.000651621
0.000652315
0.000652962
0.000653567
0.000654133
0.000654664
0.00065516
0.000655626
0.000656063
0.000656473
0.000656857
0.000657219
0.000657559
0.000657881
0.000658185
0.000658475
0.000658749
0.000659013
0.000659265
0.000659509
0.000659745
0.000659975
0.000660198
0.00066042
0.000660637
0.000660858
0.000661073
0.000661295
0.000661514
0.000661746
0.000661974
0.000662221
0.000662465
0.00066269
0.000662858
0.000663044
0.000663209
0.000663406
0.000663566
0.000663778
0.000663928
0.000664161
0.000664297
0.000664552
0.000664684
0.000664954
0.000665087
0.00066538
0.000665517
0.000665844
0.000665995
0.000666383
0.000666583
0.000667116
0.000667416
0.000668388
0.000669121
0.000653501
0.000171206
0.000306523
0.000430627
0.000509306
0.000563352
0.000602531
0.000632448
0.000655709
0.000674603
0.000689991
0.000702639
0.000713345
0.000722477
0.000730244
0.000736925
0.000742777
0.000747955
0.000752535
0.000756582
0.000760172
0.000763388
0.000766299
0.000768951
0.000771374
0.000773586
0.000775607
0.000777452
0.000779142
0.000780695
0.00078213
0.00078346
0.000784701
0.000785859
0.000786944
0.00078796
0.000788914
0.000789808
0.000790648
0.000791436
0.000792177
0.000792872
0.000793528
0.000794146
0.000794729
0.000795281
0.000795805
0.000796302
0.000796777
0.000797229
0.000797664
0.00079808
0.000798484
0.000798872
0.000799252
0.00079962
0.000799986
0.000800339
0.000800696
0.000801043
0.000801401
0.000801748
0.000802116
0.000802472
0.000802796
0.000803035
0.000803297
0.000803528
0.000803801
0.000804023
0.000804312
0.00080452
0.000804834
0.000805025
0.00080537
0.000805554
0.000805924
0.000806112
0.000806515
0.000806714
0.000807173
0.00080739
0.000807954
0.000808214
0.000809
0.000809375
0.000810622
0.000811649
0.000795703
0.000134788
0.000278877
0.000432425
0.000535961
0.000609083
0.000662995
0.000704712
0.000737579
0.000764568
0.000786799
0.000805291
0.000821093
0.000834694
0.000846381
0.000856527
0.000865484
0.00087346
0.000880564
0.000886887
0.000892537
0.00089763
0.000902263
0.000906499
0.000910385
0.000913948
0.000917216
0.000920213
0.00092297
0.000925513
0.00092787
0.000930062
0.000932109
0.000934024
0.000935821
0.000937507
0.000939091
0.000940578
0.000941977
0.000943292
0.00094453
0.000945694
0.000946793
0.000947829
0.000948809
0.000949735
0.000950615
0.000951449
0.000952246
0.000953003
0.00095373
0.000954424
0.000955094
0.000955736
0.000956361
0.000956961
0.000957553
0.000958122
0.000958692
0.00095924
0.000959798
0.000960336
0.000960896
0.000961436
0.000961919
0.000962277
0.000962663
0.000963006
0.0009634
0.000963729
0.00096414
0.000964452
0.000964892
0.000965184
0.000965664
0.00096594
0.000966466
0.000966745
0.000967317
0.000967615
0.000968261
0.00096859
0.000969371
0.000969765
0.000970806
0.000971365
0.000972842
0.000974273
0.000958015
8.28508e-05
0.000225706
0.000408493
0.000540787
0.000637437
0.000709868
0.000766566
0.000811712
0.000849103
0.000880171
0.000906252
0.000928705
0.000948164
0.000965013
0.000979752
0.000992842
0.00100456
0.00101505
0.00102444
0.00103289
0.00104054
0.00104752
0.00105393
0.00105983
0.00106526
0.00107026
0.00107485
0.0010791
0.00108303
0.00108668
0.00109008
0.00109327
0.00109626
0.00109906
0.0011017
0.00110418
0.00110651
0.00110871
0.00111077
0.00111272
0.00111456
0.00111629
0.00111793
0.00111948
0.00112095
0.00112235
0.00112367
0.00112493
0.00112613
0.00112728
0.00112838
0.00112944
0.00113045
0.00113144
0.00113238
0.0011333
0.00113419
0.00113507
0.00113592
0.00113677
0.00113759
0.00113844
0.00113926
0.00113997
0.00114051
0.00114108
0.00114159
0.00114217
0.00114266
0.00114325
0.00114372
0.00114433
0.00114478
0.00114545
0.00114588
0.0011466
0.00114702
0.00114783
0.00114826
0.00114916
0.00114964
0.00115069
0.00115127
0.0011526
0.00115339
0.00115512
0.00115692
0.00114039
3.47865e-05
0.000146738
0.000349107
0.000514501
0.000639198
0.000734568
0.000810067
0.000870744
0.000921355
0.00096369
0.000999497
0.0010305
0.00105751
0.00108104
0.00110175
0.00112023
0.00113683
0.00115176
0.00116519
0.00117732
0.00118835
0.00119846
0.00120776
0.00121635
0.00122427
0.00123158
0.00123833
0.00124458
0.00125038
0.00125578
0.00126083
0.00126557
0.00127001
0.00127419
0.00127812
0.00128183
0.00128532
0.00128861
0.00129171
0.00129464
0.0012974
0.00130002
0.00130249
0.00130483
0.00130705
0.00130916
0.00131116
0.00131307
0.00131489
0.00131663
0.00131829
0.00131989
0.00132142
0.00132291
0.00132433
0.00132571
0.00132705
0.00132836
0.00132963
0.00133089
0.00133212
0.00133336
0.00133456
0.0013356
0.00133639
0.00133721
0.00133796
0.00133877
0.00133949
0.00134031
0.001341
0.00134185
0.00134252
0.00134342
0.00134406
0.00134503
0.00134565
0.00134672
0.00134734
0.00134854
0.00134922
0.00135057
0.00135137
0.001353
0.00135404
0.00135606
0.00135813
0.00134166
4.00204e-06
4.69527e-05
0.000242619
0.000444644
0.000602785
0.000725666
0.000824403
0.000904526
0.00097179
0.00102835
0.0010765
0.0011184
0.00115504
0.0011871
0.00121546
0.00124087
0.00126377
0.00128442
0.00130306
0.00131996
0.00133538
0.00134956
0.00136264
0.00137472
0.0013859
0.00139624
0.00140581
0.00141469
0.00142296
0.00143067
0.0014379
0.00144468
0.00145105
0.00145705
0.00146271
0.00146804
0.00147307
0.00147782
0.0014823
0.00148653
0.00149054
0.00149432
0.00149791
0.00150131
0.00150453
0.0015076
0.00151051
0.0015133
0.00151595
0.00151848
0.0015209
0.00152323
0.00152546
0.00152761
0.00152968
0.00153169
0.00153362
0.00153551
0.00153734
0.00153915
0.0015409
0.00154267
0.00154438
0.00154584
0.00154696
0.00154809
0.00154915
0.00155027
0.00155128
0.00155239
0.00155337
0.0015545
0.00155544
0.00155661
0.00155753
0.00155876
0.00155966
0.00156098
0.00156189
0.00156334
0.00156428
0.00156593
0.00156698
0.00156889
0.00157026
0.00157244
0.00157471
0.00155886
1.57679e-07
2.52364e-06
8.21183e-05
0.000315623
0.00051219
0.000668393
0.000795394
0.000899371
0.0009874
0.00106177
0.00112546
0.00118112
0.00122993
0.00127281
0.0013109
0.00134513
0.00137605
0.001404
0.0014293
0.00145231
0.00147337
0.00149277
0.00151069
0.00152729
0.00154265
0.00155689
0.0015701
0.00158239
0.00159384
0.00160455
0.00161459
0.00162403
0.00163291
0.00164128
0.00164917
0.00165663
0.00166366
0.00167031
0.00167658
0.00168252
0.00168814
0.00169346
0.0016985
0.00170329
0.00170783
0.00171215
0.00171626
0.00172018
0.00172392
0.0017275
0.00173092
0.0017342
0.00173734
0.00174037
0.00174327
0.00174609
0.00174879
0.00175144
0.00175399
0.00175651
0.00175894
0.00176136
0.00176371
0.00176571
0.00176723
0.00176876
0.00177019
0.00177167
0.00177304
0.00177449
0.00177581
0.00177725
0.00177853
0.00177998
0.00178123
0.00178273
0.00178396
0.00178552
0.00178676
0.00178843
0.00178972
0.00179154
0.00179295
0.00179498
0.0017967
0.00179896
0.00180134
0.00178681
2.53728e-08
7.2861e-08
1.88008e-06
9.68838e-05
0.000347257
0.000542411
0.000703911
0.000837494
0.00095104
0.00104726
0.0011303
0.00120324
0.00126731
0.00132378
0.00137416
0.00141957
0.00146065
0.00149783
0.00153156
0.00156232
0.00159055
0.0016166
0.0016407
0.00166304
0.00168374
0.00170296
0.00172081
0.00173744
0.00175296
0.00176751
0.00178116
0.00179401
0.00180611
0.00181752
0.00182829
0.00183846
0.00184807
0.00185715
0.00186574
0.00187387
0.00188156
0.00188885
0.00189577
0.00190234
0.00190857
0.00191451
0.00192016
0.00192556
0.0019307
0.00193562
0.00194031
0.00194482
0.00194913
0.00195328
0.00195726
0.00196111
0.00196481
0.00196841
0.00197187
0.00197526
0.00197854
0.00198178
0.00198492
0.00198755
0.00198955
0.00199155
0.00199343
0.00199533
0.00199712
0.00199894
0.00200065
0.00200243
0.00200408
0.00200584
0.00200744
0.0020092
0.00201078
0.00201257
0.00201414
0.00201599
0.00201762
0.00201957
0.0020213
0.00202339
0.00202537
0.00202763
0.00203007
0.00201751
1.62558e-08
1.89744e-08
3.88966e-08
9.56354e-07
7.23565e-05
0.000315353
0.000524669
0.000693907
0.000839391
0.000962753
0.00106994
0.00116422
0.00124712
0.00132047
0.00138629
0.00144577
0.00149962
0.00154839
0.00159272
0.00163327
0.00167058
0.00170505
0.00173698
0.00176658
0.00179403
0.00181953
0.00184326
0.00186539
0.00188609
0.00190552
0.00192376
0.00194095
0.00195714
0.00197243
0.00198685
0.00200049
0.00201336
0.00202555
0.00203707
0.00204798
0.00205831
0.00206812
0.00207742
0.00208626
0.00209466
0.00210266
0.00211028
0.00211755
0.00212447
0.0021311
0.00213743
0.00214349
0.00214929
0.00215486
0.00216019
0.00216535
0.00217028
0.00217507
0.00217967
0.00218415
0.00218846
0.00219269
0.00219678
0.00220016
0.00220274
0.00220527
0.00220767
0.00221004
0.0022123
0.00221454
0.00221667
0.00221882
0.00222085
0.00222292
0.00222487
0.00222689
0.00222879
0.00223079
0.00223267
0.00223466
0.00223656
0.00223859
0.00224057
0.00224265
0.0022448
0.00224694
0.00224942
0.00223928
1.52922e-08
1.54497e-08
1.63397e-08
2.41705e-08
2.37768e-07
2.14775e-05
0.000195619
0.000432547
0.000621724
0.000777368
0.000914795
0.00103619
0.00114259
0.0012371
0.00132214
0.00139912
0.00146879
0.00153193
0.00158947
0.0016423
0.00169105
0.00173616
0.00177794
0.00181667
0.00185261
0.00188601
0.00191713
0.0019462
0.00197344
0.00199903
0.00202309
0.00204576
0.00206714
0.00208732
0.00210637
0.00212438
0.00214139
0.00215748
0.00217271
0.00218714
0.00220081
0.00221379
0.00222611
0.00223782
0.00224896
0.00225957
0.00226967
0.00227931
0.0022885
0.00229729
0.00230567
0.0023137
0.00232137
0.00232873
0.00233577
0.00234255
0.00234903
0.00235529
0.00236129
0.0023671
0.00237268
0.0023781
0.00238332
0.00238759
0.00239084
0.00239398
0.00239697
0.00239988
0.00240264
0.00240535
0.00240792
0.00241045
0.00241287
0.00241526
0.00241754
0.00241981
0.002422
0.00242418
0.0024263
0.00242841
0.0024305
0.00243256
0.00243468
0.0024367
0.00243893
0.00244086
0.00244332
0.0024353
1.52015e-08
1.50949e-08
1.50819e-08
1.53053e-08
1.76291e-08
4.70144e-08
1.08732e-06
4.37447e-05
0.000223677
0.000436507
0.000624999
0.000781881
0.000916342
0.00103697
0.0011468
0.00124615
0.0013357
0.00141678
0.00149092
0.0015591
0.00162214
0.0016805
0.00173454
0.00178462
0.00183108
0.00187432
0.00191465
0.00195244
0.00198791
0.00202127
0.00205267
0.00208227
0.00211018
0.00213652
0.00216139
0.00218488
0.00220708
0.00222809
0.00224797
0.00226682
0.00228468
0.00230165
0.00231777
0.0023331
0.00234768
0.00236158
0.00237481
0.00238744
0.00239948
0.00241098
0.00242196
0.00243245
0.00244248
0.00245207
0.00246122
0.00247001
0.00247839
0.00248644
0.00249414
0.00250153
0.0025086
0.00251541
0.00252194
0.00252719
0.00253118
0.00253499
0.0025386
0.00254206
0.00254534
0.00254848
0.00255147
0.00255434
0.00255707
0.0025597
0.00256221
0.00256463
0.00256695
0.00256919
0.00257135
0.00257343
0.00257547
0.0025774
0.00257937
0.00258113
0.00258313
0.00258459
0.00258686
0.00258323
1.52086e-08
1.51239e-08
1.50812e-08
1.49944e-08
1.50231e-08
1.54794e-08
1.89425e-08
5.04324e-08
7.30241e-07
1.98234e-05
0.000138827
0.000316575
0.000496874
0.000665414
0.000813619
0.000942048
0.00105542
0.00115821
0.00125306
0.00134114
0.00142272
0.00149808
0.00156761
0.00163188
0.00169149
0.00174703
0.00179898
0.00184768
0.00189344
0.00193653
0.0019771
0.00201536
0.00205142
0.00208543
0.00211752
0.00214784
0.00217648
0.00220359
0.00222926
0.0022536
0.0022767
0.00229865
0.00231951
0.00233938
0.00235829
0.00237632
0.0023935
0.0024099
0.00242552
0.00244044
0.00245467
0.00246827
0.00248123
0.00249362
0.00250543
0.0025167
0.00252744
0.00253768
0.00254742
0.00255672
0.00256555
0.00257397
0.00258196
0.00258831
0.00259309
0.0025976
0.00260183
0.00260583
0.00260957
0.0026131
0.00261641
0.00261953
0.00262245
0.00262521
0.00262777
0.0026302
0.00263245
0.0026346
0.00263656
0.00263845
0.00264015
0.00264184
0.00264327
0.00264481
0.00264597
0.00264744
0.00264826
0.00264983
1.52203e-08
1.51677e-08
1.51303e-08
1.50735e-08
1.5036e-08
1.49923e-08
1.50308e-08
1.53763e-08
1.72701e-08
2.77045e-08
1.11388e-07
1.36225e-06
1.84888e-05
0.000108815
0.000242952
0.000386192
0.000533251
0.000676386
0.000809506
0.000930036
0.00103808
0.00113523
0.00122349
0.00130472
0.00138028
0.00145112
0.00151777
0.00158062
0.00163983
0.00169558
0.00174801
0.00179733
0.00184371
0.00188737
0.0019285
0.00196732
0.002004
0.00203872
0.00207161
0.00210284
0.0021325
0.00216071
0.00218754
0.00221309
0.00223742
0.00226062
0.00228272
0.0023038
0.0023239
0.00234307
0.00236134
0.00237877
0.00239537
0.0024112
0.00242627
0.00244063
0.00245428
0.00246725
0.00247956
0.00249124
0.00250229
0.00251274
0.0025226
0.00253035
0.00253614
0.00254156
0.00254661
0.00255132
0.00255569
0.00255976
0.00256353
0.00256703
0.00257026
0.00257324
0.00257597
0.00257849
0.00258078
0.00258289
0.00258478
0.00258651
0.00258804
0.00258944
0.00259065
0.00259175
0.00259268
0.00259351
0.00259423
0.00259953
1.52283e-08
1.51912e-08
1.51702e-08
1.51299e-08
1.51095e-08
1.507e-08
1.50504e-08
1.50187e-08
1.50322e-08
1.5098e-08
1.57277e-08
1.70793e-08
2.58916e-08
5.28881e-08
2.78247e-07
1.89741e-06
1.51872e-05
6.81378e-05
0.000157057
0.000256713
0.000362029
0.000471781
0.000583174
0.00069311
0.000798978
0.000899092
0.000992527
0.00107909
0.00115898
0.00123271
0.00130088
0.00136416
0.00142313
0.00147836
0.00153028
0.0015793
0.00162571
0.00166977
0.00171165
0.00175153
0.00178952
0.00182575
0.00186028
0.00189323
0.00192464
0.00195459
0.00198312
0.00201032
0.00203622
0.00206089
0.00208436
0.0021067
0.00212793
0.00214811
0.00216727
0.00218544
0.00220267
0.00221899
0.0022344
0.00224895
0.00226264
0.00227549
0.00228751
0.00229686
0.0023038
0.00231022
0.00231615
0.00232162
0.00232664
0.00233124
0.00233544
0.00233926
0.00234272
0.00234582
0.00234862
0.00235109
0.00235328
0.00235518
0.00235683
0.00235821
0.0023594
0.00236032
0.00236109
0.00236159
0.00236203
0.00236215
0.00236258
0.00237238
1.52335e-08
1.52111e-08
1.51923e-08
1.51703e-08
1.51521e-08
1.51318e-08
1.51144e-08
1.50952e-08
1.50775e-08
1.50613e-08
1.50509e-08
1.50594e-08
1.5134e-08
1.52843e-08
1.59488e-08
1.7128e-08
2.12382e-08
3.07908e-08
6.38818e-08
1.87357e-07
7.58128e-07
3.41454e-06
1.37479e-05
4.19381e-05
9.09151e-05
0.000151562
0.000216378
0.000283657
0.000353183
0.0004247
0.000497486
0.000570759
0.000643632
0.00071539
0.000785372
0.000853127
0.000918279
0.000980631
0.00104004
0.00109648
0.00114996
0.00120057
0.00124839
0.00129357
0.00133622
0.0013765
0.00141452
0.00145045
0.00148439
0.00151647
0.0015468
0.00157547
0.00160257
0.0016282
0.00165241
0.00167527
0.00169682
0.00171713
0.00173621
0.00175411
0.00177085
0.00178644
0.00180089
0.001812
0.00182018
0.00182768
0.00183452
0.00184075
0.00184638
0.00185147
0.00185601
0.00186007
0.00186362
0.00186675
0.00186942
0.00187171
0.00187358
0.00187514
0.0018763
0.00187721
0.00187775
0.00187809
0.00187806
0.0018779
0.00187755
0.00187661
0.00187665
0.00189192
1.52372e-08
1.52222e-08
1.52127e-08
1.51966e-08
1.51877e-08
1.51727e-08
1.51644e-08
1.51505e-08
1.51427e-08
1.51296e-08
1.51215e-08
1.51094e-08
1.51028e-08
1.50948e-08
1.50964e-08
1.51034e-08
1.51318e-08
1.5185e-08
1.53237e-08
1.55718e-08
1.61237e-08
1.71533e-08
1.93862e-08
2.3235e-08
3.17903e-08
4.8894e-08
8.88729e-08
1.82517e-07
4.20855e-07
1.01793e-06
2.50558e-06
5.92546e-06
1.3089e-05
2.60129e-05
4.60268e-05
7.23905e-05
0.000103227
0.000136328
0.000170505
0.000205038
0.000239822
0.00027472
0.000309762
0.000344856
0.000379948
0.000414935
0.000449695
0.00048414
0.000518118
0.000551572
0.00058434
0.000616403
0.000647594
0.000677932
0.000707251
0.000735597
0.000762793
0.000788696
0.000813329
0.000836561
0.000858422
0.000878776
0.000897671
0.000912095
0.000922685
0.0009323
0.000941032
0.000948864
0.000955894
0.000962098
0.000967583
0.000972315
0.000976408
0.00097982
0.000982673
0.000984913
0.000986674
0.000987889
0.000988702
0.000989032
0.000988927
0.000988597
0.000987829
0.000987047
0.000985497
0.000984391
0.000982182
0.00100031
1.52399e-08
1.52359e-08
1.52294e-08
1.52251e-08
1.52191e-08
1.52152e-08
1.52094e-08
1.52058e-08
1.52004e-08
1.51971e-08
1.51919e-08
1.51889e-08
1.5184e-08
1.51805e-08
1.5176e-08
1.51729e-08
1.5169e-08
1.5167e-08
1.5165e-08