/*--------------------------------*- C++ -*----------------------------------*\
| =========                 |                                                 |
| \\      /  F ield         | OpenFOAM: The Open Source CFD Toolbox           |
|  \\    /   O peration     | Version:  v2006                                 |
|   \\  /    A nd           | Website:  www.openfoam.com                      |
|    \\/     M anipulation  |                                                 |
\*---------------------------------------------------------------------------*/
FoamFile
{
    version     2.0;
    format      ascii;
    class       volScalarField;
    location    "11000";
    object      nut;
}
// * * * * * * * * * * * * * * * * * * * * * * * * * * * * * * * * * * * * * //

dimensions      [0 2 -1 0 0 0 0];


internalField   nonuniform List<scalar> 
184860
(
1.91863e-08
5.415e-08
2.43806e-07
1.21424e-06
8.47974e-06
0.000121382
1.92171e-08
5.43512e-08
2.45038e-07
1.21988e-06
8.52055e-06
0.000121508
1.92814e-08
5.47781e-08
2.4765e-07
1.23174e-06
8.60462e-06
0.000121748
1.93816e-08
5.54569e-08
2.51805e-07
1.25045e-06
8.73379e-06
0.000122084
1.95201e-08
5.64159e-08
2.57677e-07
1.2766e-06
8.90905e-06
0.00012249
1.96992e-08
5.76848e-08
2.65453e-07
1.31075e-06
9.13026e-06
0.000122941
1.99207e-08
5.92946e-08
2.75325e-07
1.35341e-06
9.39586e-06
0.000123404
2.01862e-08
6.12765e-08
2.87471e-07
1.405e-06
9.70246e-06
0.000123844
2.04962e-08
6.36604e-08
3.0205e-07
1.46573e-06
1.00445e-05
0.000124221
2.0851e-08
6.64729e-08
3.19175e-07
1.53555e-06
1.04139e-05
0.000124489
2.12491e-08
6.97337e-08
3.38884e-07
1.61403e-06
1.07996e-05
0.000124597
2.1688e-08
7.34515e-08
3.61099e-07
1.70022e-06
1.11878e-05
0.000124486
2.21631e-08
7.76182e-08
3.85575e-07
1.79249e-06
1.15612e-05
0.000124091
2.26678e-08
8.22014e-08
4.11844e-07
1.88838e-06
1.18997e-05
0.000123339
2.31924e-08
8.71365e-08
4.39148e-07
1.9845e-06
1.21805e-05
0.000122177
2.37244e-08
9.23179e-08
4.66393e-07
2.07641e-06
1.23786e-05
0.000120545
2.42477e-08
9.75908e-08
4.92112e-07
2.15862e-06
1.2468e-05
0.000118379
2.47426e-08
1.02746e-07
5.14464e-07
2.22468e-06
1.24235e-05
0.000115613
2.5186e-08
1.07522e-07
5.313e-07
2.26743e-06
1.22206e-05
0.000112177
2.55518e-08
1.1161e-07
5.40268e-07
2.27949e-06
1.18392e-05
0.000107996
2.5812e-08
1.14682e-07
5.39134e-07
2.25399e-06
1.12654e-05
0.000102998
2.59385e-08
1.16321e-07
5.26225e-07
2.18517e-06
1.04944e-05
9.71135e-05
2.59056e-08
1.16111e-07
5.00755e-07
2.06976e-06
9.53321e-06
9.02794e-05
2.56924e-08
1.1371e-07
4.63072e-07
1.90823e-06
8.40411e-06
8.24523e-05
2.52864e-08
1.08902e-07
4.1487e-07
1.70556e-06
7.14616e-06
7.36222e-05
2.46861e-08
1.01708e-07
3.59195e-07
1.46963e-06
5.82131e-06
6.3838e-05
2.3904e-08
9.24068e-08
2.99993e-07
1.21213e-06
4.50958e-06
5.32449e-05
2.29671e-08
8.15534e-08
2.4108e-07
9.50864e-07
3.29598e-06
4.21326e-05
2.19162e-08
6.99149e-08
1.86267e-07
7.05282e-07
2.25607e-06
3.09961e-05
2.08034e-08
5.83509e-08
1.38684e-07
4.92811e-07
1.43976e-06
2.06392e-05
1.96874e-08
4.76607e-08
1.0022e-07
3.24876e-07
8.59735e-07
1.20764e-05
1.86274e-08
3.84456e-08
7.13018e-08
2.04449e-07
4.91164e-07
6.08465e-06
1.76769e-08
3.10357e-08
5.10949e-08
1.26578e-07
2.84117e-07
2.71798e-06
1.68779e-08
2.55044e-08
3.8041e-08
8.18773e-08
1.66661e-07
1.13645e-06
1.6255e-08
2.17613e-08
2.98498e-08
5.57028e-08
9.94091e-08
4.6334e-07
1.5813e-08
1.93559e-08
2.44826e-08
3.97205e-08
6.11186e-08
1.9192e-07
1.55352e-08
1.77493e-08
2.08985e-08
2.9743e-08
4.00351e-08
8.70266e-08
1.53864e-08
1.6672e-08
1.86144e-08
2.37108e-08
2.94488e-08
4.82891e-08
1.53205e-08
1.60142e-08
1.731e-08
2.04355e-08
2.37389e-08
3.22861e-08
1.52933e-08
1.56954e-08
1.6507e-08
1.84322e-08
2.02281e-08
2.43116e-08
1.52757e-08
1.5507e-08
1.59674e-08
1.70976e-08
1.8016e-08
1.9963e-08
1.52597e-08
1.53822e-08
1.56488e-08
1.63345e-08
1.69534e-08
1.80693e-08
1.52552e-08
1.53421e-08
1.55156e-08
1.59445e-08
1.63249e-08
1.69943e-08
1.52532e-08
1.53124e-08
1.54131e-08
1.566e-08
1.58504e-08
1.62026e-08
1.52478e-08
1.52785e-08
1.53376e-08
1.54775e-08
1.56232e-08
1.58427e-08
1.52454e-08
1.52687e-08
1.531e-08
1.53981e-08
1.54814e-08
1.56172e-08
1.52442e-08
1.52587e-08
1.52791e-08
1.53232e-08
1.53618e-08
1.54271e-08
1.52422e-08
1.52493e-08
1.52633e-08
1.52922e-08
1.53201e-08
1.53645e-08
1.5242e-08
1.52459e-08
1.52529e-08
1.52683e-08
1.52787e-08
1.53081e-08
1.52417e-08
1.5244e-08
1.52481e-08
1.52571e-08
1.52645e-08
1.52852e-08
1.52418e-08
1.52436e-08
1.52454e-08
1.52496e-08
1.52515e-08
1.52597e-08
1.52416e-08
1.52428e-08
1.52435e-08
1.52453e-08
1.5247e-08
1.52519e-08
1.52416e-08
1.52426e-08
1.5243e-08
1.52441e-08
1.5244e-08
1.52447e-08
1.52416e-08
1.52427e-08
1.5243e-08
1.52439e-08
1.52434e-08
1.52435e-08
1.52416e-08
1.52427e-08
1.5243e-08
1.52437e-08
1.52437e-08
1.52437e-08
1.52416e-08
1.52427e-08
1.5243e-08
1.52436e-08
1.52437e-08
1.52437e-08
1.52416e-08
1.52427e-08
1.5243e-08
1.52436e-08
1.52437e-08
1.52436e-08
1.52416e-08
1.52427e-08
1.5243e-08
1.52436e-08
1.52436e-08
1.52436e-08
1.52416e-08
1.52427e-08
1.52429e-08
1.52436e-08
1.52436e-08
1.52435e-08
1.52416e-08
1.52427e-08
1.52429e-08
1.52435e-08
1.52436e-08
1.52435e-08
1.52416e-08
1.52426e-08
1.52429e-08
1.52434e-08
1.52435e-08
1.52434e-08
1.52415e-08
1.52426e-08
1.52428e-08
1.52434e-08
1.52434e-08
1.52434e-08
1.52415e-08
1.52426e-08
1.52428e-08
1.52433e-08
1.52434e-08
1.52433e-08
1.52415e-08
1.52426e-08
1.52428e-08
1.52432e-08
1.52433e-08
1.52432e-08
1.52415e-08
1.52425e-08
1.52427e-08
1.52432e-08
1.52433e-08
1.52432e-08
1.52415e-08
1.52425e-08
1.52427e-08
1.52431e-08
1.52432e-08
1.52431e-08
1.52415e-08
1.52425e-08
1.52426e-08
1.5243e-08
1.52431e-08
1.5243e-08
1.52415e-08
1.52424e-08
1.52426e-08
1.5243e-08
1.52431e-08
1.52429e-08
1.52415e-08
1.52424e-08
1.52425e-08
1.52429e-08
1.5243e-08
1.52429e-08
1.52415e-08
1.52423e-08
1.52425e-08
1.52428e-08
1.52429e-08
1.52428e-08
1.52415e-08
1.52423e-08
1.52424e-08
1.52427e-08
1.52428e-08
1.52427e-08
1.52415e-08
1.52423e-08
1.52424e-08
1.52427e-08
1.52428e-08
1.52426e-08
1.52415e-08
1.52422e-08
1.52423e-08
1.52426e-08
1.52427e-08
1.52425e-08
1.52415e-08
1.52422e-08
1.52423e-08
1.52425e-08
1.52426e-08
1.52425e-08
1.52415e-08
1.52422e-08
1.52422e-08
1.52424e-08
1.52425e-08
1.52424e-08
1.52415e-08
1.52421e-08
1.52422e-08
1.52423e-08
1.52424e-08
1.52423e-08
1.52415e-08
1.52421e-08
1.52422e-08
1.52423e-08
1.52424e-08
1.52422e-08
1.52415e-08
1.5242e-08
1.52421e-08
1.52422e-08
1.52423e-08
1.52421e-08
1.52415e-08
1.5242e-08
1.52421e-08
1.52421e-08
1.52422e-08
1.52421e-08
1.52415e-08
1.5242e-08
1.5242e-08
1.5242e-08
1.52421e-08
1.52419e-08
1.52415e-08
1.52419e-08
1.52419e-08
1.5242e-08
1.5242e-08
1.52419e-08
1.52415e-08
1.52419e-08
1.52419e-08
1.52419e-08
1.52419e-08
1.52418e-08
1.52415e-08
1.52418e-08
1.52417e-08
1.52417e-08
1.52418e-08
1.52416e-08
1.52414e-08
1.52418e-08
1.52417e-08
1.52417e-08
1.52417e-08
1.52415e-08
1.52414e-08
1.52418e-08
1.52416e-08
1.52416e-08
1.52416e-08
1.52414e-08
1.52414e-08
1.52417e-08
1.52416e-08
1.52416e-08
1.52416e-08
1.52414e-08
1.52414e-08
1.52417e-08
1.52416e-08
1.52415e-08
1.52415e-08
1.52413e-08
1.52414e-08
1.52417e-08
1.52416e-08
1.52415e-08
1.52415e-08
1.52413e-08
1.52414e-08
1.52416e-08
1.52416e-08
1.52415e-08
1.52414e-08
1.52412e-08
1.52414e-08
1.52416e-08
1.52416e-08
1.52414e-08
1.52413e-08
1.5241e-08
1.52414e-08
1.52416e-08
1.52415e-08
1.52413e-08
1.52412e-08
1.52409e-08
1.52414e-08
1.52415e-08
1.52415e-08
1.52413e-08
1.52412e-08
1.52408e-08
1.52414e-08
1.52415e-08
1.52414e-08
1.52413e-08
1.52411e-08
1.52407e-08
1.52414e-08
1.52415e-08
1.52414e-08
1.52412e-08
1.5241e-08
1.52406e-08
1.52414e-08
1.52414e-08
1.52414e-08
1.52412e-08
1.52409e-08
1.52405e-08
1.52414e-08
1.52414e-08
1.52413e-08
1.52412e-08
1.52409e-08
1.52405e-08
1.52413e-08
1.52413e-08
1.52412e-08
1.5241e-08
1.52408e-08
1.52404e-08
1.52413e-08
1.52413e-08
1.52412e-08
1.5241e-08
1.52408e-08
1.52404e-08
1.52414e-08
1.52414e-08
1.52413e-08
1.52412e-08
1.52409e-08
1.52405e-08
1.52414e-08
1.52414e-08
1.52414e-08
1.52412e-08
1.52409e-08
1.52406e-08
1.52414e-08
1.52415e-08
1.52414e-08
1.52412e-08
1.5241e-08
1.52406e-08
1.52414e-08
1.52415e-08
1.52414e-08
1.52413e-08
1.52411e-08
1.52407e-08
1.52414e-08
1.52415e-08
1.52415e-08
1.52413e-08
1.52412e-08
1.52408e-08
1.52414e-08
1.52416e-08
1.52415e-08
1.52413e-08
1.52412e-08
1.52409e-08
1.52414e-08
1.52416e-08
1.52416e-08
1.52414e-08
1.52413e-08
1.5241e-08
1.52414e-08
1.52416e-08
1.52416e-08
1.52415e-08
1.52414e-08
1.52412e-08
1.52414e-08
1.52417e-08
1.52416e-08
1.52415e-08
1.52415e-08
1.52413e-08
1.52414e-08
1.52417e-08
1.52416e-08
1.52415e-08
1.52415e-08
1.52413e-08
1.52414e-08
1.52417e-08
1.52416e-08
1.52416e-08
1.52416e-08
1.52414e-08
1.52414e-08
1.52418e-08
1.52416e-08
1.52416e-08
1.52416e-08
1.52414e-08
1.52414e-08
1.52418e-08
1.52417e-08
1.52417e-08
1.52417e-08
1.52415e-08
1.52414e-08
1.52419e-08
1.52417e-08
1.52417e-08
1.52418e-08
1.52416e-08
1.52414e-08
1.52419e-08
1.52419e-08
1.52419e-08
1.52419e-08
1.52418e-08
1.52414e-08
1.52419e-08
1.52419e-08
1.5242e-08
1.5242e-08
1.52419e-08
1.52414e-08
1.5242e-08
1.5242e-08
1.5242e-08
1.52421e-08
1.52419e-08
1.52414e-08
1.5242e-08
1.5242e-08
1.52421e-08
1.52422e-08
1.5242e-08
1.52415e-08
1.52421e-08
1.52421e-08
1.52422e-08
1.52423e-08
1.52421e-08
1.52415e-08
1.52421e-08
1.52421e-08
1.52423e-08
1.52424e-08
1.52422e-08
1.52415e-08
1.52421e-08
1.52422e-08
1.52423e-08
1.52424e-08
1.52423e-08
1.52415e-08
1.52422e-08
1.52422e-08
1.52424e-08
1.52425e-08
1.52424e-08
1.52415e-08
1.52422e-08
1.52423e-08
1.52425e-08
1.52426e-08
1.52424e-08
1.52415e-08
1.52422e-08
1.52423e-08
1.52426e-08
1.52427e-08
1.52425e-08
1.52415e-08
1.52423e-08
1.52424e-08
1.52426e-08
1.52427e-08
1.52426e-08
1.52415e-08
1.52423e-08
1.52424e-08
1.52427e-08
1.52428e-08
1.52427e-08
1.52415e-08
1.52423e-08
1.52425e-08
1.52428e-08
1.52429e-08
1.52428e-08
1.52415e-08
1.52424e-08
1.52425e-08
1.52429e-08
1.5243e-08
1.52429e-08
1.52415e-08
1.52424e-08
1.52426e-08
1.52429e-08
1.5243e-08
1.52429e-08
1.52415e-08
1.52425e-08
1.52426e-08
1.5243e-08
1.52431e-08
1.5243e-08
1.52415e-08
1.52425e-08
1.52427e-08
1.52431e-08
1.52432e-08
1.52431e-08
1.52415e-08
1.52425e-08
1.52427e-08
1.52432e-08
1.52432e-08
1.52432e-08
1.52415e-08
1.52425e-08
1.52428e-08
1.52432e-08
1.52433e-08
1.52432e-08
1.52415e-08
1.52426e-08
1.52428e-08
1.52433e-08
1.52434e-08
1.52433e-08
1.52415e-08
1.52426e-08
1.52428e-08
1.52434e-08
1.52434e-08
1.52434e-08
1.52416e-08
1.52426e-08
1.52429e-08
1.52434e-08
1.52435e-08
1.52434e-08
1.52416e-08
1.52427e-08
1.52429e-08
1.52435e-08
1.52435e-08
1.52435e-08
1.52416e-08
1.52427e-08
1.52429e-08
1.52435e-08
1.52436e-08
1.52435e-08
1.52416e-08
1.52427e-08
1.5243e-08
1.52436e-08
1.52436e-08
1.52436e-08
1.52416e-08
1.52427e-08
1.5243e-08
1.52437e-08
1.52437e-08
1.52436e-08
1.52416e-08
1.52428e-08
1.5243e-08
1.52437e-08
1.52437e-08
1.52437e-08
1.52416e-08
1.52428e-08
1.52431e-08
1.52437e-08
1.52438e-08
1.52438e-08
1.52416e-08
1.52428e-08
1.52431e-08
1.52438e-08
1.5244e-08
1.52439e-08
1.52416e-08
1.52428e-08
1.52432e-08
1.52439e-08
1.52443e-08
1.52436e-08
1.52416e-08
1.52428e-08
1.52432e-08
1.52438e-08
1.52449e-08
1.52483e-08
1.52417e-08
1.52433e-08
1.52441e-08
1.52457e-08
1.52483e-08
1.52566e-08
1.52417e-08
1.52439e-08
1.52466e-08
1.52519e-08
1.52569e-08
1.52714e-08
1.52418e-08
1.52446e-08
1.52487e-08
1.5258e-08
1.52694e-08
1.52918e-08
1.52423e-08
1.52482e-08
1.52587e-08
1.528e-08
1.53009e-08
1.53411e-08
1.52433e-08
1.52526e-08
1.52686e-08
1.5304e-08
1.53437e-08
1.54096e-08
1.5245e-08
1.52643e-08
1.5296e-08
1.53623e-08
1.54165e-08
1.55301e-08
1.52451e-08
1.52729e-08
1.53253e-08
1.54326e-08
1.55455e-08
1.57243e-08
1.52501e-08
1.52953e-08
1.5366e-08
1.55239e-08
1.56873e-08
1.59542e-08
1.52541e-08
1.53288e-08
1.54625e-08
1.57714e-08
1.60405e-08
1.6533e-08
1.52549e-08
1.53605e-08
1.55727e-08
1.60793e-08
1.6572e-08
1.74405e-08
1.52666e-08
1.54368e-08
1.57599e-08
1.6557e-08
1.73221e-08
1.87724e-08
1.52835e-08
1.55848e-08
1.61804e-08
1.75857e-08
1.88419e-08
2.15746e-08
1.53026e-08
1.58115e-08
1.68118e-08
1.916e-08
2.15252e-08
2.71417e-08
1.53407e-08
1.6236e-08
1.77707e-08
2.15481e-08
2.57236e-08
3.75071e-08
1.54334e-08
1.70466e-08
1.93657e-08
2.5636e-08
3.28729e-08
5.98001e-08
1.5626e-08
1.82919e-08
2.20872e-08
3.29516e-08
4.67809e-08
1.1731e-07
1.596e-08
2.01283e-08
2.62047e-08
4.4748e-08
7.31827e-08
2.68591e-07
1.64633e-08
2.28966e-08
3.2349e-08
6.36609e-08
1.20199e-07
6.51033e-07
1.71443e-08
2.72514e-08
4.18162e-08
9.49974e-08
2.0212e-07
1.57387e-06
1.79911e-08
3.33863e-08
5.70649e-08
1.49147e-07
3.44988e-07
3.67386e-06
1.89734e-08
4.13522e-08
7.98618e-08
2.39266e-07
5.9656e-07
7.8625e-06
2.00461e-08
5.10025e-08
1.1155e-07
3.73395e-07
1.02435e-06
1.46997e-05
2.11552e-08
6.19297e-08
1.52583e-07
5.54027e-07
1.67022e-06
2.38637e-05
2.22426e-08
7.34799e-08
2.02097e-07
7.75568e-07
2.54741e-06
3.44715e-05
2.3253e-08
8.4846e-08
2.57853e-07
1.02482e-06
3.63198e-06
4.55618e-05
2.41391e-08
9.52083e-08
3.16561e-07
1.28393e-06
4.86684e-06
5.64422e-05
2.48647e-08
1.03874e-07
3.74469e-07
1.53422e-06
6.17474e-06
6.67098e-05
2.54079e-08
1.10377e-07
4.27923e-07
1.75957e-06
7.47356e-06
7.61337e-05
2.57602e-08
1.14516e-07
4.73177e-07
1.95037e-06
8.68888e-06
8.46046e-05
2.5926e-08
1.16335e-07
5.07603e-07
2.09927e-06
9.76728e-06
9.20936e-05
2.59197e-08
1.16082e-07
5.29888e-07
2.20262e-06
1.0675e-05
9.86204e-05
2.57629e-08
1.14108e-07
5.39976e-07
2.26083e-06
1.13942e-05
0.000104233
2.54811e-08
1.10825e-07
5.38833e-07
2.27777e-06
1.19206e-05
0.000108992
2.51018e-08
1.06615e-07
5.28244e-07
2.25927e-06
1.22611e-05
0.000112968
2.46517e-08
1.01796e-07
5.10404e-07
2.21215e-06
1.24305e-05
0.000116232
2.41557e-08
9.66576e-08
4.87572e-07
2.14356e-06
1.24492e-05
0.000118852
2.36354e-08
9.14438e-08
4.61782e-07
2.06031e-06
1.23412e-05
0.000120897
2.31095e-08
8.63482e-08
4.34755e-07
1.9685e-06
1.21309e-05
0.000122432
2.25929e-08
8.15125e-08
4.07854e-07
1.8733e-06
1.18436e-05
0.000123516
2.20973e-08
7.70324e-08
3.82089e-07
1.77885e-06
1.15032e-05
0.000124206
2.16315e-08
7.29659e-08
3.58151e-07
1.6883e-06
1.11313e-05
0.000124555
2.12019e-08
6.93406e-08
3.36462e-07
1.60392e-06
1.07472e-05
0.000124634
2.08125e-08
6.61622e-08
3.1724e-07
1.5272e-06
1.0367e-05
0.000124507
2.04658e-08
6.34211e-08
3.00546e-07
1.45901e-06
1.0004e-05
0.000124228
2.01627e-08
6.10973e-08
2.86334e-07
1.39973e-06
9.66855e-06
0.000123847
1.99034e-08
5.91647e-08
2.74492e-07
1.34939e-06
9.36826e-06
0.000123408
1.96869e-08
5.75942e-08
2.64863e-07
1.30775e-06
9.10835e-06
0.000122949
1.95119e-08
5.63556e-08
2.57275e-07
1.2744e-06
8.89197e-06
0.000122504
1.93764e-08
5.5419e-08
2.51541e-07
1.24887e-06
8.72059e-06
0.000122104
1.92785e-08
5.47556e-08
2.47481e-07
1.23059e-06
8.59428e-06
0.000121774
1.92156e-08
5.43381e-08
2.44927e-07
1.21899e-06
8.51206e-06
0.000121539
1.91854e-08
5.41412e-08
2.43721e-07
1.21348e-06
8.47214e-06
0.000121415
5.72544e-09
3.5806e-09
3.11896e-09
2.8401e-09
2.64939e-09
2.50969e-09
2.40217e-09
2.31665e-09
2.24674e-09
2.18826e-09
2.1384e-09
2.09522e-09
2.05736e-09
2.0238e-09
1.99382e-09
1.96681e-09
1.94233e-09
1.92001e-09
1.89957e-09
1.88076e-09
1.86338e-09
1.84727e-09
1.83228e-09
1.81831e-09
1.80524e-09
1.79299e-09
1.78148e-09
1.77064e-09
1.76043e-09
1.75078e-09
1.74164e-09
1.73299e-09
1.72478e-09
1.71698e-09
1.70955e-09
1.70248e-09
1.69574e-09
1.68931e-09
1.68316e-09
1.67728e-09
1.67165e-09
1.66626e-09
1.66108e-09
1.65612e-09
1.65136e-09
1.64678e-09
1.64238e-09
1.63815e-09
1.63407e-09
1.63014e-09
1.62636e-09
1.6227e-09
1.61918e-09
1.61578e-09
1.61249e-09
1.60932e-09
1.60626e-09
1.60327e-09
1.60045e-09
1.59801e-09
1.59492e-09
1.59233e-09
1.5898e-09
1.58735e-09
1.58498e-09
1.58267e-09
1.58044e-09
1.57827e-09
1.57616e-09
1.57411e-09
1.57212e-09
1.57019e-09
1.56831e-09
1.56649e-09
1.56471e-09
1.56298e-09
1.5613e-09
1.55966e-09
1.55807e-09
1.55651e-09
1.555e-09
1.55353e-09
1.55209e-09
1.55069e-09
1.54933e-09
1.548e-09
1.5467e-09
1.54544e-09
1.5442e-09
1.543e-09
1.54182e-09
1.54068e-09
1.53956e-09
1.53846e-09
1.53739e-09
1.53635e-09
1.53533e-09
1.53434e-09
1.53336e-09
1.53241e-09
1.53149e-09
1.53058e-09
1.52969e-09
1.52882e-09
1.52798e-09
1.52715e-09
1.52634e-09
1.52555e-09
1.52477e-09
1.52402e-09
1.52328e-09
1.52256e-09
1.52185e-09
1.52116e-09
1.52049e-09
1.51984e-09
1.5192e-09
1.51857e-09
1.51796e-09
1.51737e-09
1.51679e-09
1.51622e-09
1.51567e-09
1.51514e-09
1.51462e-09
1.51412e-09
1.51363e-09
1.51316e-09
1.51271e-09
1.51227e-09
1.51184e-09
1.51144e-09
1.51105e-09
1.51068e-09
1.51033e-09
1.50999e-09
1.50967e-09
1.50938e-09
1.5091e-09
1.50884e-09
1.50861e-09
1.5084e-09
1.50821e-09
1.50804e-09
1.5079e-09
1.50779e-09
1.5077e-09
1.50764e-09
1.50761e-09
1.50761e-09
1.50764e-09
1.50771e-09
1.5078e-09
1.50794e-09
1.50811e-09
1.50832e-09
1.50857e-09
1.50886e-09
1.5092e-09
1.50958e-09
1.51001e-09
1.51049e-09
1.51102e-09
1.5116e-09
1.51224e-09
1.51294e-09
1.5137e-09
1.51453e-09
1.51542e-09
1.51637e-09
1.5174e-09
1.51851e-09
1.51969e-09
1.52096e-09
1.5223e-09
1.52374e-09
1.52526e-09
1.52689e-09
1.52861e-09
1.53043e-09
1.53236e-09
1.5344e-09
1.53656e-09
1.53884e-09
1.54125e-09
1.54378e-09
1.54646e-09
1.54927e-09
1.55224e-09
1.55481e-09
1.55688e-09
1.559e-09
1.56118e-09
1.56341e-09
1.56568e-09
1.56801e-09
1.5704e-09
1.57283e-09
1.57532e-09
1.57786e-09
1.58045e-09
1.5831e-09
1.5858e-09
1.58855e-09
1.59136e-09
1.59421e-09
1.59712e-09
1.60008e-09
1.60309e-09
1.60616e-09
1.60928e-09
1.61246e-09
1.6157e-09
1.619e-09
1.62235e-09
1.62577e-09
1.62924e-09
1.63277e-09
1.63635e-09
1.63998e-09
1.64367e-09
1.64741e-09
1.65121e-09
1.65506e-09
1.65897e-09
1.66295e-09
1.66699e-09
1.6711e-09
1.67528e-09
1.67954e-09
1.68387e-09
1.6882e-09
1.69273e-09
1.6969e-09
1.70227e-09
1.70714e-09
1.71174e-09
1.71626e-09
1.72101e-09
1.72596e-09
1.73098e-09
1.73608e-09
1.74131e-09
1.74666e-09
1.75216e-09
1.75771e-09
1.76348e-09
1.76913e-09
1.77525e-09
1.78085e-09
1.78747e-09
1.7929e-09
1.79981e-09
1.80582e-09
1.81097e-09
1.82158e-09
1.81646e-09
1.84651e-09
1.8001e-09
1.90151e-09
1.70136e-09
2.03016e-09
1.40942e-09
1.96202e-09
3.80806e-07
2.53801e-07
2.18582e-07
1.9749e-07
1.8308e-07
1.7254e-07
1.64441e-07
1.58007e-07
1.52753e-07
1.48363e-07
1.44623e-07
1.41388e-07
1.38553e-07
1.36043e-07
1.33802e-07
1.31784e-07
1.29957e-07
1.28292e-07
1.26768e-07
1.25367e-07
1.24073e-07
1.22873e-07
1.21759e-07
1.20719e-07
1.19748e-07
1.18837e-07
1.17983e-07
1.17178e-07
1.1642e-07
1.15704e-07
1.15027e-07
1.14385e-07
1.13777e-07
1.13199e-07
1.12649e-07
1.12125e-07
1.11626e-07
1.1115e-07
1.10695e-07
1.1026e-07
1.09843e-07
1.09444e-07
1.09062e-07
1.08696e-07
1.08343e-07
1.08005e-07
1.0768e-07
1.07367e-07
1.07066e-07
1.06776e-07
1.06497e-07
1.06227e-07
1.05967e-07
1.05716e-07
1.05474e-07
1.05239e-07
1.05014e-07
1.04794e-07
1.04586e-07
1.04398e-07
1.04178e-07
1.03986e-07
1.038e-07
1.0362e-07
1.03445e-07
1.03275e-07
1.0311e-07
1.0295e-07
1.02795e-07
1.02644e-07
1.02498e-07
1.02356e-07
1.02217e-07
1.02083e-07
1.01952e-07
1.01825e-07
1.01701e-07
1.0158e-07
1.01463e-07
1.01349e-07
1.01237e-07
1.01129e-07
1.01023e-07
1.0092e-07
1.0082e-07
1.00722e-07
1.00627e-07
1.00534e-07
1.00443e-07
1.00354e-07
1.00268e-07
1.00184e-07
1.00101e-07
1.00021e-07
9.99422e-08
9.98655e-08
9.97906e-08
9.97174e-08
9.96459e-08
9.95761e-08
9.95078e-08
9.94411e-08
9.93759e-08
9.93122e-08
9.92499e-08
9.9189e-08
9.91295e-08
9.90714e-08
9.90145e-08
9.8959e-08
9.89047e-08
9.88516e-08
9.87998e-08
9.8749e-08
9.86997e-08
9.86517e-08
9.86045e-08
9.85584e-08
9.85134e-08
9.84697e-08
9.84271e-08
9.83856e-08
9.83452e-08
9.8306e-08
9.82678e-08
9.82308e-08
9.81949e-08
9.81601e-08
9.81265e-08
9.8094e-08
9.80628e-08
9.80328e-08
9.8004e-08
9.79764e-08
9.79502e-08
9.79253e-08
9.79017e-08
9.78796e-08
9.78589e-08
9.78396e-08
9.7822e-08
9.78059e-08
9.77914e-08
9.77787e-08
9.77678e-08
9.77587e-08
9.77515e-08
9.77463e-08
9.77432e-08
9.77422e-08
9.77435e-08
9.77471e-08
9.77532e-08
9.77617e-08
9.7773e-08
9.77869e-08
9.78038e-08
9.78236e-08
9.78466e-08
9.78728e-08
9.79024e-08
9.79355e-08
9.79723e-08
9.80129e-08
9.80575e-08
9.81063e-08
9.81594e-08
9.82169e-08
9.82792e-08
9.83463e-08
9.84185e-08
9.8496e-08
9.8579e-08
9.86676e-08
9.87623e-08
9.88631e-08
9.89704e-08
9.90844e-08
9.92054e-08
9.93337e-08
9.94695e-08
9.96132e-08
9.97652e-08
9.99255e-08
1.00095e-07
1.00273e-07
1.00462e-07
1.0066e-07
1.00869e-07
1.01049e-07
1.01196e-07
1.01345e-07
1.01498e-07
1.01655e-07
1.01815e-07
1.01979e-07
1.02147e-07
1.02318e-07
1.02493e-07
1.02672e-07
1.02855e-07
1.03041e-07
1.0323e-07
1.03424e-07
1.03621e-07
1.03822e-07
1.04027e-07
1.04235e-07
1.04447e-07
1.04663e-07
1.04882e-07
1.05105e-07
1.05333e-07
1.05564e-07
1.05799e-07
1.06039e-07
1.06282e-07
1.06529e-07
1.0678e-07
1.07035e-07
1.07294e-07
1.07557e-07
1.07824e-07
1.08094e-07
1.08369e-07
1.08647e-07
1.0893e-07
1.09218e-07
1.0951e-07
1.09807e-07
1.10108e-07
1.10413e-07
1.10727e-07
1.11025e-07
1.11385e-07
1.11706e-07
1.12034e-07
1.12366e-07
1.12703e-07
1.13048e-07
1.13399e-07
1.13756e-07
1.14119e-07
1.14489e-07
1.14868e-07
1.15252e-07
1.15649e-07
1.16042e-07
1.16464e-07
1.16856e-07
1.17314e-07
1.177e-07
1.1818e-07
1.1861e-07
1.18987e-07
1.19712e-07
1.19475e-07
1.21384e-07
1.18756e-07
1.24686e-07
1.14166e-07
1.29247e-07
9.49865e-08
1.26049e-07
2.79959e-06
2.04927e-06
1.77757e-06
1.61269e-06
1.49908e-06
1.41551e-06
1.35106e-06
1.2997e-06
1.25765e-06
1.22244e-06
1.19241e-06
1.16639e-06
1.14357e-06
1.12334e-06
1.10526e-06
1.08897e-06
1.07421e-06
1.06076e-06
1.04843e-06
1.03709e-06
1.02661e-06
1.0169e-06
1.00787e-06
9.99445e-07
9.91569e-07
9.84186e-07
9.77252e-07
9.70725e-07
9.64571e-07
9.58758e-07
9.53258e-07
9.48047e-07
9.43102e-07
9.38405e-07
9.33936e-07
9.29679e-07
9.25621e-07
9.21748e-07
9.18048e-07
9.14509e-07
9.11122e-07
9.07878e-07
9.04767e-07
9.01783e-07
8.98917e-07
8.96164e-07
8.93517e-07
8.9097e-07
8.88518e-07
8.86157e-07
8.83881e-07
8.81686e-07
8.79568e-07
8.77523e-07
8.75548e-07
8.73639e-07
8.71799e-07
8.70008e-07
8.68309e-07
8.66691e-07
8.64984e-07
8.63424e-07
8.61911e-07
8.60439e-07
8.59013e-07
8.57629e-07
8.56286e-07
8.54982e-07
8.53716e-07
8.52487e-07
8.51292e-07
8.50132e-07
8.49004e-07
8.47907e-07
8.4684e-07
8.45802e-07
8.44792e-07
8.43809e-07
8.42852e-07
8.4192e-07
8.41012e-07
8.40128e-07
8.39266e-07
8.38426e-07
8.37607e-07
8.36809e-07
8.3603e-07
8.35271e-07
8.3453e-07
8.33807e-07
8.33101e-07
8.32413e-07
8.3174e-07
8.31084e-07
8.30443e-07
8.29817e-07
8.29205e-07
8.28608e-07
8.28025e-07
8.27454e-07
8.26897e-07
8.26353e-07
8.2582e-07
8.253e-07
8.24792e-07
8.24295e-07
8.23809e-07
8.23334e-07
8.2287e-07
8.22416e-07
8.21973e-07
8.21539e-07
8.21116e-07
8.20702e-07
8.20298e-07
8.19905e-07
8.1952e-07
8.19144e-07
8.18776e-07
8.18418e-07
8.1807e-07
8.1773e-07
8.174e-07
8.17078e-07
8.16766e-07
8.16462e-07
8.16168e-07
8.15883e-07
8.15607e-07
8.15341e-07
8.15084e-07
8.14837e-07
8.146e-07
8.14373e-07
8.14157e-07
8.13951e-07
8.13756e-07
8.13572e-07
8.134e-07
8.13239e-07
8.13091e-07
8.12956e-07
8.12834e-07
8.12725e-07
8.1263e-07
8.12551e-07
8.12486e-07
8.12438e-07
8.12405e-07
8.1239e-07
8.12393e-07
8.12414e-07
8.12454e-07
8.12515e-07
8.12596e-07
8.127e-07
8.12825e-07
8.12975e-07
8.13149e-07
8.13349e-07
8.13576e-07
8.1383e-07
8.14114e-07
8.14427e-07
8.14772e-07
8.1515e-07
8.15562e-07
8.16009e-07
8.16493e-07
8.17016e-07
8.17578e-07
8.18182e-07
8.18829e-07
8.19521e-07
8.2026e-07
8.21047e-07
8.21885e-07
8.22776e-07
8.23721e-07
8.24723e-07
8.25784e-07
8.26907e-07
8.28094e-07
8.29347e-07
8.30672e-07
8.32066e-07
8.33538e-07
8.35085e-07
8.36717e-07
8.38127e-07
8.39269e-07
8.40436e-07
8.41633e-07
8.42856e-07
8.44108e-07
8.45388e-07
8.46695e-07
8.4803e-07
8.49394e-07
8.50785e-07
8.52206e-07
8.53655e-07
8.55132e-07
8.56638e-07
8.58173e-07
8.59737e-07
8.61329e-07
8.62949e-07
8.64598e-07
8.66275e-07
8.6798e-07
8.69714e-07
8.71477e-07
8.73269e-07
8.75091e-07
8.76943e-07
8.78824e-07
8.80737e-07
8.8268e-07
8.84655e-07
8.86659e-07
8.88693e-07
8.90757e-07
8.9285e-07
8.94972e-07
8.97125e-07
8.99308e-07
9.01523e-07
9.03767e-07
9.06049e-07
9.0836e-07
9.10709e-07
9.13106e-07
9.15468e-07
9.18057e-07
9.20432e-07
9.23015e-07
9.25655e-07
9.28266e-07
9.30902e-07
9.33591e-07
9.36326e-07
9.3909e-07
9.41902e-07
9.4476e-07
9.47672e-07
9.50661e-07
9.53656e-07
9.56826e-07
9.59843e-07
9.63271e-07
9.66275e-07
9.69902e-07
9.73221e-07
9.76286e-07
9.81452e-07
9.80899e-07
9.93164e-07
9.79282e-07
1.01204e-06
9.64629e-07
1.00204e-06
8.88234e-07
9.55417e-07
9.701e-06
8.05037e-06
7.1304e-06
6.52073e-06
6.08829e-06
5.76521e-06
5.51363e-06
5.31178e-06
5.14575e-06
5.0062e-06
4.88682e-06
4.78317e-06
4.69209e-06
4.61125e-06
4.53889e-06
4.47366e-06
4.41447e-06
4.36048e-06
4.31099e-06
4.26542e-06
4.2233e-06
4.18424e-06
4.1479e-06
4.11399e-06
4.08227e-06
4.05253e-06
4.02459e-06
3.99829e-06
3.97348e-06
3.95004e-06
3.92786e-06
3.90684e-06
3.88689e-06
3.86793e-06
3.84989e-06
3.83271e-06
3.81632e-06
3.80068e-06
3.78574e-06
3.77145e-06
3.75777e-06
3.74466e-06
3.73209e-06
3.72003e-06
3.70845e-06
3.69733e-06
3.68663e-06
3.67633e-06
3.66642e-06
3.65687e-06
3.64767e-06
3.6388e-06
3.63023e-06
3.62196e-06
3.61398e-06
3.60626e-06
3.59881e-06
3.59157e-06
3.58468e-06
3.57764e-06
3.57123e-06
3.56493e-06
3.55881e-06
3.55286e-06
3.54708e-06
3.54148e-06
3.53605e-06
3.53077e-06
3.52565e-06
3.52067e-06
3.51584e-06
3.51114e-06
3.50658e-06
3.50214e-06
3.49782e-06
3.49362e-06
3.48953e-06
3.48555e-06
3.48168e-06
3.4779e-06
3.47423e-06
3.47065e-06
3.46716e-06
3.46376e-06
3.46044e-06
3.45721e-06
3.45406e-06
3.45098e-06
3.44798e-06
3.44505e-06
3.4422e-06
3.43941e-06
3.43669e-06
3.43403e-06
3.43143e-06
3.4289e-06
3.42642e-06
3.424e-06
3.42164e-06
3.41933e-06
3.41707e-06
3.41487e-06
3.41271e-06
3.4106e-06
3.40854e-06
3.40653e-06
3.40456e-06
3.40264e-06
3.40076e-06
3.39892e-06
3.39712e-06
3.39537e-06
3.39365e-06
3.39197e-06
3.39033e-06
3.38874e-06
3.38718e-06
3.38565e-06
3.38416e-06
3.38271e-06
3.3813e-06
3.37992e-06
3.37858e-06
3.37727e-06
3.376e-06
3.37477e-06
3.37357e-06
3.37241e-06
3.37129e-06
3.3702e-06
3.36916e-06
3.36815e-06
3.36718e-06
3.36625e-06
3.36537e-06
3.36452e-06
3.36372e-06
3.36296e-06
3.36225e-06
3.36159e-06
3.36097e-06
3.36041e-06
3.35989e-06
3.35943e-06
3.35903e-06
3.35868e-06
3.3584e-06
3.35817e-06
3.35801e-06
3.35792e-06
3.3579e-06
3.35795e-06
3.35807e-06
3.35828e-06
3.35857e-06
3.35894e-06
3.3594e-06
3.35995e-06
3.3606e-06
3.36135e-06
3.3622e-06
3.36317e-06
3.36424e-06
3.36544e-06
3.36675e-06
3.3682e-06
3.36977e-06
3.37149e-06
3.37335e-06
3.37535e-06
3.37752e-06
3.37984e-06
3.38233e-06
3.385e-06
3.38785e-06
3.39089e-06
3.39412e-06
3.39756e-06
3.4012e-06
3.40507e-06
3.40917e-06
3.41351e-06
3.41809e-06
3.42293e-06
3.42804e-06
3.43343e-06
3.43911e-06
3.44509e-06
3.45139e-06
3.45683e-06
3.46124e-06
3.46575e-06
3.47037e-06
3.47509e-06
3.47992e-06
3.48485e-06
3.48989e-06
3.49504e-06
3.50029e-06
3.50565e-06
3.51112e-06
3.51669e-06
3.52238e-06
3.52817e-06
3.53407e-06
3.54009e-06
3.54621e-06
3.55244e-06
3.55878e-06
3.56522e-06
3.57177e-06
3.57843e-06
3.58519e-06
3.59206e-06
3.59904e-06
3.60613e-06
3.61332e-06
3.62064e-06
3.62806e-06
3.6356e-06
3.64326e-06
3.65104e-06
3.65893e-06
3.66693e-06
3.67504e-06
3.68326e-06
3.69158e-06
3.70003e-06
3.70857e-06
3.71725e-06
3.72601e-06
3.73498e-06
3.74397e-06
3.75322e-06
3.76253e-06
3.77142e-06
3.78108e-06
3.7912e-06
3.80121e-06
3.81121e-06
3.8214e-06
3.83177e-06
3.84223e-06
3.85285e-06
3.86356e-06
3.87451e-06
3.88563e-06
3.89696e-06
3.90869e-06
3.92025e-06
3.93289e-06
3.94457e-06
3.95817e-06
3.9709e-06
3.98385e-06
4.0012e-06
4.00674e-06
4.04061e-06
4.02291e-06
4.07946e-06
4.07496e-06
3.81649e-06
4.26779e-06
3.46216e-06
2.13176e-05
2.02574e-05
1.88915e-05
1.76909e-05
1.67518e-05
1.60101e-05
1.54112e-05
1.49182e-05
1.45048e-05
1.41521e-05
1.38469e-05
1.35794e-05
1.33425e-05
1.31309e-05
1.29404e-05
1.2768e-05
1.26108e-05
1.2467e-05
1.23347e-05
1.22126e-05
1.20995e-05
1.19943e-05
1.18963e-05
1.18047e-05
1.17188e-05
1.16382e-05
1.15624e-05
1.14909e-05
1.14234e-05
1.13595e-05
1.1299e-05
1.12416e-05
1.11871e-05
1.11353e-05
1.1086e-05
1.10389e-05
1.0994e-05
1.09511e-05
1.09101e-05
1.08709e-05
1.08333e-05
1.07973e-05
1.07627e-05
1.07296e-05
1.06977e-05
1.06671e-05
1.06376e-05
1.06092e-05
1.05819e-05
1.05556e-05
1.05302e-05
1.05057e-05
1.04821e-05
1.04593e-05
1.04372e-05
1.04159e-05
1.03953e-05
1.03753e-05
1.03562e-05
1.03354e-05
1.03191e-05
1.03016e-05
1.02847e-05
1.02682e-05
1.02522e-05
1.02367e-05
1.02217e-05
1.02071e-05
1.01929e-05
1.01791e-05
1.01657e-05
1.01527e-05
1.014e-05
1.01277e-05
1.01158e-05
1.01041e-05
1.00928e-05
1.00817e-05
1.0071e-05
1.00605e-05
1.00503e-05
1.00404e-05
1.00307e-05
1.00213e-05
1.00121e-05
1.00031e-05
9.99434e-06
9.9858e-06
9.97747e-06
9.96934e-06
9.9614e-06
9.95366e-06
9.94609e-06
9.93871e-06
9.9315e-06
9.92446e-06
9.91757e-06
9.91085e-06
9.90428e-06
9.89786e-06
9.89159e-06
9.88546e-06
9.87947e-06
9.87361e-06
9.86788e-06
9.86228e-06
9.85681e-06
9.85146e-06
9.84623e-06
9.84111e-06
9.83611e-06
9.83123e-06
9.82645e-06
9.82178e-06
9.81721e-06
9.81276e-06
9.80841e-06
9.80418e-06
9.80003e-06
9.79598e-06
9.79204e-06
9.7882e-06
9.78445e-06
9.78081e-06
9.77726e-06
9.77382e-06
9.77047e-06
9.76723e-06
9.76409e-06
9.76105e-06
9.75812e-06
9.75529e-06
9.75257e-06
9.74996e-06
9.74746e-06
9.74507e-06
9.74281e-06
9.74066e-06
9.73864e-06
9.73674e-06
9.73498e-06
9.73335e-06
9.73186e-06
9.73052e-06
9.72933e-06
9.72829e-06
9.72742e-06
9.72671e-06
9.72617e-06
9.72582e-06
9.72565e-06
9.72568e-06
9.72591e-06
9.72636e-06
9.72702e-06
9.72791e-06
9.72903e-06
9.7304e-06
9.73203e-06
9.73393e-06
9.73611e-06
9.73857e-06
9.74134e-06
9.74442e-06
9.74783e-06
9.75158e-06
9.75568e-06
9.76015e-06
9.765e-06
9.77024e-06
9.7759e-06
9.78198e-06
9.78851e-06
9.7955e-06
9.80297e-06
9.81094e-06
9.81943e-06
9.82845e-06
9.83804e-06
9.8482e-06
9.85896e-06
9.87035e-06
9.8824e-06
9.89511e-06
9.90854e-06
9.92268e-06
9.93761e-06
9.9533e-06
9.96984e-06
9.98411e-06
9.9957e-06
1.00075e-05
1.00196e-05
1.0032e-05
1.00447e-05
1.00576e-05
1.00708e-05
1.00843e-05
1.0098e-05
1.0112e-05
1.01263e-05
1.01409e-05
1.01557e-05
1.01708e-05
1.01862e-05
1.02019e-05
1.02179e-05
1.02341e-05
1.02506e-05
1.02674e-05
1.02844e-05
1.03018e-05
1.03193e-05
1.03372e-05
1.03553e-05
1.03736e-05
1.03923e-05
1.04111e-05
1.04303e-05
1.04498e-05
1.04696e-05
1.04896e-05
1.051e-05
1.05306e-05
1.05515e-05
1.05727e-05