/*--------------------------------*- C++ -*----------------------------------*\
| =========                 |                                                 |
| \\      /  F ield         | OpenFOAM: The Open Source CFD Toolbox           |
|  \\    /   O peration     | Version:  v2006                                 |
|   \\  /    A nd           | Website:  www.openfoam.com                      |
|    \\/     M anipulation  |                                                 |
\*---------------------------------------------------------------------------*/
FoamFile
{
    version     2.0;
    format      ascii;
    class       volScalarField;
    location    "9776";
    object      nut;
}
// * * * * * * * * * * * * * * * * * * * * * * * * * * * * * * * * * * * * * //

dimensions      [0 2 -1 0 0 0 0];


internalField   nonuniform List<scalar> 
184860
(
1.89266e-08
5.01923e-08
2.07761e-07
9.47309e-07
6.2703e-06
0.000102212
1.89483e-08
5.03261e-08
2.08526e-07
9.50592e-07
6.29439e-06
0.000102309
1.89937e-08
5.06108e-08
2.10152e-07
9.57523e-07
6.34426e-06
0.000102498
1.90649e-08
5.10644e-08
2.12741e-07
9.68478e-07
6.42133e-06
0.000102768
1.91639e-08
5.17066e-08
2.16401e-07
9.83837e-07
6.52658e-06
0.000103106
1.92926e-08
5.2558e-08
2.21246e-07
1.00397e-06
6.66038e-06
0.000103492
1.94529e-08
5.36398e-08
2.27392e-07
1.02922e-06
6.82234e-06
0.000103904
1.96461e-08
5.4974e-08
2.34951e-07
1.05988e-06
7.01105e-06
0.000104318
1.98735e-08
5.65818e-08
2.44027e-07
1.09614e-06
7.22384e-06
0.000104703
2.01356e-08
5.84831e-08
2.547e-07
1.13807e-06
7.45654e-06
0.000105027
2.04322e-08
6.06947e-08
2.67018e-07
1.18554e-06
7.70322e-06
0.000105253
2.07626e-08
6.32277e-08
2.80967e-07
1.23815e-06
7.95598e-06
0.000105338
2.11243e-08
6.60849e-08
2.96455e-07
1.29515e-06
8.20481e-06
0.000105237
2.15139e-08
6.92567e-08
3.13274e-07
1.35535e-06
8.43757e-06
0.000104896
2.19261e-08
7.27164e-08
3.31064e-07
1.41699e-06
8.6401e-06
0.000104258
2.23532e-08
7.6415e-08
3.49281e-07
1.47774e-06
8.79648e-06
0.000103258
2.27855e-08
8.02754e-08
3.67164e-07
1.53457e-06
8.88942e-06
0.000101834
2.32104e-08
8.41878e-08
3.83711e-07
1.58381e-06
8.90168e-06
9.9932e-05
2.36125e-08
8.80059e-08
3.97692e-07
1.62117e-06
8.81611e-06
9.74935e-05
2.39739e-08
9.15483e-08
4.07676e-07
1.64199e-06
8.61749e-06
9.4459e-05
2.4274e-08
9.46042e-08
4.12129e-07
1.64154e-06
8.29407e-06
9.07684e-05
2.44909e-08
9.69206e-08
4.09654e-07
1.61555e-06
7.83924e-06
8.63635e-05
2.46019e-08
9.81899e-08
3.99218e-07
1.56047e-06
7.25346e-06
8.11918e-05
2.45864e-08
9.8109e-08
3.80325e-07
1.47471e-06
6.54609e-06
7.52119e-05
2.44267e-08
9.64243e-08
3.53204e-07
1.35904e-06
5.73675e-06
6.84031e-05
2.41111e-08
9.29613e-08
3.18943e-07
1.21722e-06
4.85574e-06
6.07793e-05
2.36365e-08
8.77046e-08
2.79495e-07
1.05431e-06
3.94788e-06
5.24093e-05
2.30102e-08
8.08147e-08
2.37404e-07
8.7812e-07
3.06538e-06
4.34442e-05
2.2251e-08
7.26447e-08
1.95159e-07
6.99963e-07
2.26016e-06
3.41496e-05
2.13891e-08
6.37088e-08
1.5527e-07
5.31934e-07
1.57522e-06
2.49934e-05
2.0464e-08
5.46099e-08
1.19862e-07
3.84741e-07
1.03645e-06
1.66588e-05
1.95217e-08
4.59416e-08
9.03261e-08
2.65552e-07
6.47837e-07
9.87897e-06
1.86098e-08
3.81907e-08
6.71674e-08
1.76695e-07
3.92887e-07
5.13973e-06
1.77726e-08
3.16722e-08
5.00715e-08
1.15916e-07
2.40401e-07
2.40373e-06
1.70461e-08
2.65138e-08
3.81738e-08
7.80611e-08
1.48347e-07
1.04235e-06
1.6454e-08
2.26912e-08
3.037e-08
5.47069e-08
9.27124e-08
4.41145e-07
1.60045e-08
2.00931e-08
2.51016e-08
3.99184e-08
5.95388e-08
1.90186e-07
1.56904e-08
1.83271e-08
2.15128e-08
3.04371e-08
4.04205e-08
8.95994e-08
1.54902e-08
1.71119e-08
1.91417e-08
2.44901e-08
3.0158e-08
5.05527e-08
1.53739e-08
1.62993e-08
1.76576e-08
2.09643e-08
2.42138e-08
3.34249e-08
1.53104e-08
1.5811e-08
1.66873e-08
1.87294e-08
2.05126e-08
2.48602e-08
1.52757e-08
1.55417e-08
1.60519e-08
1.72708e-08
1.8233e-08
2.03894e-08
1.52568e-08
1.53981e-08
1.56799e-08
1.64308e-08
1.70288e-08
1.82211e-08
1.5251e-08
1.53315e-08
1.54918e-08
1.59371e-08
1.62782e-08
1.69347e-08
1.52479e-08
1.52924e-08
1.53767e-08
1.56168e-08
1.57905e-08
1.61189e-08
1.52447e-08
1.52657e-08
1.53129e-08
1.54429e-08
1.55626e-08
1.57609e-08
1.52433e-08
1.52566e-08
1.52835e-08
1.53519e-08
1.54149e-08
1.55232e-08
1.52426e-08
1.52499e-08
1.52618e-08
1.52908e-08
1.53266e-08
1.53863e-08
1.52418e-08
1.52451e-08
1.52523e-08
1.52682e-08
1.52869e-08
1.53197e-08
1.52415e-08
1.52431e-08
1.52465e-08
1.52532e-08
1.52612e-08
1.52832e-08
1.52416e-08
1.52429e-08
1.52448e-08
1.52487e-08
1.52524e-08
1.52645e-08
1.52416e-08
1.5243e-08
1.52438e-08
1.52455e-08
1.5247e-08
1.52527e-08
1.52416e-08
1.5243e-08
1.52434e-08
1.52442e-08
1.52448e-08
1.52471e-08
1.52416e-08
1.5243e-08
1.52433e-08
1.52442e-08
1.52438e-08
1.52436e-08
1.52416e-08
1.5243e-08
1.52433e-08
1.52442e-08
1.52441e-08
1.52437e-08
1.52416e-08
1.5243e-08
1.52433e-08
1.52442e-08
1.52441e-08
1.52438e-08
1.52416e-08
1.5243e-08
1.52433e-08
1.52441e-08
1.5244e-08
1.52437e-08
1.52416e-08
1.52429e-08
1.52432e-08
1.5244e-08
1.5244e-08
1.52437e-08
1.52416e-08
1.52429e-08
1.52432e-08
1.5244e-08
1.52439e-08
1.52437e-08
1.52416e-08
1.52429e-08
1.52432e-08
1.52439e-08
1.52439e-08
1.52436e-08
1.52416e-08
1.52428e-08
1.52431e-08
1.52438e-08
1.52438e-08
1.52435e-08
1.52416e-08
1.52428e-08
1.52431e-08
1.52438e-08
1.52437e-08
1.52434e-08
1.52416e-08
1.52428e-08
1.5243e-08
1.52437e-08
1.52437e-08
1.52434e-08
1.52416e-08
1.52427e-08
1.5243e-08
1.52436e-08
1.52436e-08
1.52433e-08
1.52416e-08
1.52427e-08
1.52429e-08
1.52435e-08
1.52435e-08
1.52432e-08
1.52416e-08
1.52427e-08
1.52429e-08
1.52435e-08
1.52434e-08
1.52431e-08
1.52415e-08
1.52426e-08
1.52428e-08
1.52434e-08
1.52434e-08
1.5243e-08
1.52415e-08
1.52426e-08
1.52428e-08
1.52433e-08
1.52433e-08
1.5243e-08
1.52415e-08
1.52426e-08
1.52427e-08
1.52432e-08
1.52432e-08
1.52429e-08
1.52415e-08
1.52425e-08
1.52427e-08
1.52431e-08
1.52431e-08
1.52428e-08
1.52415e-08
1.52425e-08
1.52426e-08
1.52431e-08
1.5243e-08
1.52427e-08
1.52415e-08
1.52424e-08
1.52426e-08
1.5243e-08
1.52429e-08
1.52426e-08
1.52415e-08
1.52424e-08
1.52425e-08
1.52429e-08
1.52429e-08
1.52425e-08
1.52415e-08
1.52424e-08
1.52425e-08
1.52428e-08
1.52428e-08
1.52424e-08
1.52414e-08
1.52423e-08
1.52424e-08
1.52427e-08
1.52427e-08
1.52423e-08
1.52414e-08
1.52423e-08
1.52423e-08
1.52426e-08
1.52426e-08
1.52422e-08
1.52414e-08
1.52422e-08
1.52423e-08
1.52425e-08
1.52425e-08
1.52421e-08
1.52414e-08
1.52422e-08
1.52422e-08
1.52424e-08
1.52424e-08
1.5242e-08
1.52414e-08
1.52421e-08
1.52422e-08
1.52423e-08
1.52423e-08
1.52419e-08
1.52414e-08
1.52421e-08
1.52421e-08
1.52422e-08
1.52422e-08
1.52418e-08
1.52414e-08
1.5242e-08
1.5242e-08
1.52421e-08
1.52421e-08
1.52417e-08
1.52414e-08
1.5242e-08
1.5242e-08
1.5242e-08
1.5242e-08
1.52416e-08
1.52414e-08
1.5242e-08
1.52419e-08
1.52419e-08
1.52419e-08
1.52415e-08
1.52414e-08
1.52419e-08
1.52417e-08
1.52417e-08
1.52417e-08
1.52413e-08
1.52414e-08
1.52419e-08
1.52416e-08
1.52416e-08
1.52416e-08
1.52412e-08
1.52414e-08
1.52418e-08
1.52416e-08
1.52416e-08
1.52415e-08
1.52411e-08
1.52414e-08
1.52418e-08
1.52416e-08
1.52415e-08
1.52415e-08
1.5241e-08
1.52414e-08
1.52417e-08
1.52416e-08
1.52415e-08
1.52414e-08
1.52409e-08
1.52414e-08
1.52417e-08
1.52416e-08
1.52414e-08
1.52413e-08
1.52407e-08
1.52414e-08
1.52416e-08
1.52415e-08
1.52413e-08
1.52411e-08
1.52406e-08
1.52414e-08
1.52416e-08
1.52415e-08
1.52412e-08
1.5241e-08
1.52405e-08
1.52414e-08
1.52415e-08
1.52415e-08
1.52412e-08
1.52409e-08
1.52404e-08
1.52414e-08
1.52415e-08
1.52414e-08
1.52412e-08
1.52409e-08
1.52403e-08
1.52414e-08
1.52415e-08
1.52414e-08
1.52412e-08
1.52408e-08
1.52403e-08
1.52414e-08
1.52414e-08
1.52413e-08
1.52411e-08
1.52407e-08
1.52403e-08
1.52414e-08
1.52414e-08
1.52413e-08
1.52411e-08
1.52407e-08
1.52403e-08
1.52413e-08
1.52413e-08
1.52411e-08
1.52409e-08
1.52405e-08
1.52401e-08
1.52413e-08
1.52413e-08
1.52411e-08
1.52409e-08
1.52405e-08
1.52401e-08
1.52414e-08
1.52414e-08
1.52413e-08
1.52411e-08
1.52407e-08
1.52403e-08
1.52414e-08
1.52414e-08
1.52413e-08
1.52411e-08
1.52407e-08
1.52403e-08
1.52414e-08
1.52415e-08
1.52414e-08
1.52412e-08
1.52408e-08
1.52403e-08
1.52414e-08
1.52415e-08
1.52414e-08
1.52412e-08
1.52409e-08
1.52403e-08
1.52414e-08
1.52416e-08
1.52415e-08
1.52412e-08
1.52409e-08
1.52404e-08
1.52414e-08
1.52416e-08
1.52415e-08
1.52412e-08
1.5241e-08
1.52405e-08
1.52414e-08
1.52416e-08
1.52415e-08
1.52413e-08
1.52411e-08
1.52406e-08
1.52414e-08
1.52417e-08
1.52416e-08
1.52414e-08
1.52413e-08
1.52407e-08
1.52414e-08
1.52417e-08
1.52416e-08
1.52415e-08
1.52414e-08
1.52409e-08
1.52414e-08
1.52418e-08
1.52416e-08
1.52415e-08
1.52415e-08
1.5241e-08
1.52414e-08
1.52418e-08
1.52416e-08
1.52416e-08
1.52415e-08
1.52411e-08
1.52414e-08
1.52418e-08
1.52416e-08
1.52416e-08
1.52416e-08
1.52412e-08
1.52414e-08
1.52419e-08
1.52417e-08
1.52417e-08
1.52417e-08
1.52413e-08
1.52414e-08
1.5242e-08
1.52419e-08
1.52419e-08
1.52419e-08
1.52415e-08
1.52414e-08
1.5242e-08
1.5242e-08
1.5242e-08
1.5242e-08
1.52416e-08
1.52414e-08
1.5242e-08
1.5242e-08
1.52421e-08
1.52421e-08
1.52417e-08
1.52414e-08
1.52421e-08
1.52421e-08
1.52422e-08
1.52422e-08
1.52418e-08
1.52414e-08
1.52421e-08
1.52422e-08
1.52423e-08
1.52423e-08
1.52419e-08
1.52414e-08
1.52422e-08
1.52422e-08
1.52424e-08
1.52424e-08
1.5242e-08
1.52414e-08
1.52422e-08
1.52423e-08
1.52425e-08
1.52425e-08
1.52421e-08
1.52414e-08
1.52423e-08
1.52423e-08
1.52426e-08
1.52426e-08
1.52422e-08
1.52414e-08
1.52423e-08
1.52424e-08
1.52427e-08
1.52427e-08
1.52423e-08
1.52415e-08
1.52424e-08
1.52424e-08
1.52428e-08
1.52428e-08
1.52424e-08
1.52415e-08
1.52424e-08
1.52425e-08
1.52429e-08
1.52428e-08
1.52425e-08
1.52415e-08
1.52424e-08
1.52426e-08
1.52429e-08
1.52429e-08
1.52426e-08
1.52415e-08
1.52425e-08
1.52426e-08
1.5243e-08
1.5243e-08
1.52427e-08
1.52415e-08
1.52425e-08
1.52427e-08
1.52431e-08
1.52431e-08
1.52428e-08
1.52415e-08
1.52426e-08
1.52427e-08
1.52432e-08
1.52432e-08
1.52429e-08
1.52415e-08
1.52426e-08
1.52428e-08
1.52433e-08
1.52433e-08
1.52429e-08
1.52415e-08
1.52426e-08
1.52428e-08
1.52434e-08
1.52434e-08
1.5243e-08
1.52416e-08
1.52427e-08
1.52429e-08
1.52435e-08
1.52434e-08
1.52431e-08
1.52416e-08
1.52427e-08
1.52429e-08
1.52435e-08
1.52435e-08
1.52432e-08
1.52416e-08
1.52427e-08
1.5243e-08
1.52436e-08
1.52436e-08
1.52433e-08
1.52416e-08
1.52428e-08
1.5243e-08
1.52437e-08
1.52436e-08
1.52434e-08
1.52416e-08
1.52428e-08
1.52431e-08
1.52437e-08
1.52437e-08
1.52434e-08
1.52416e-08
1.52428e-08
1.52431e-08
1.52438e-08
1.52438e-08
1.52435e-08
1.52416e-08
1.52429e-08
1.52431e-08
1.52439e-08
1.52438e-08
1.52436e-08
1.52416e-08
1.52429e-08
1.52432e-08
1.52439e-08
1.52439e-08
1.52436e-08
1.52416e-08
1.52429e-08
1.52432e-08
1.5244e-08
1.52439e-08
1.52437e-08
1.52416e-08
1.52429e-08
1.52432e-08
1.5244e-08
1.5244e-08
1.52438e-08
1.52416e-08
1.5243e-08
1.52433e-08
1.52441e-08
1.5244e-08
1.52438e-08
1.52416e-08
1.5243e-08
1.52433e-08
1.52441e-08
1.5244e-08
1.52437e-08
1.52416e-08
1.5243e-08
1.52433e-08
1.52441e-08
1.52436e-08
1.52435e-08
1.52416e-08
1.52429e-08
1.52433e-08
1.52439e-08
1.52443e-08
1.52457e-08
1.52416e-08
1.5243e-08
1.52435e-08
1.52444e-08
1.52459e-08
1.52507e-08
1.52417e-08
1.52431e-08
1.52445e-08
1.52476e-08
1.52499e-08
1.52586e-08
1.52416e-08
1.5243e-08
1.52456e-08
1.52519e-08
1.52586e-08
1.52787e-08
1.52416e-08
1.52441e-08
1.52495e-08
1.52622e-08
1.52743e-08
1.53067e-08
1.52422e-08
1.5247e-08
1.52566e-08
1.52813e-08
1.53078e-08
1.53528e-08
1.52429e-08
1.52534e-08
1.52726e-08
1.53196e-08
1.53592e-08
1.54309e-08
1.52433e-08
1.52612e-08
1.52971e-08
1.53873e-08
1.54791e-08
1.56341e-08
1.52463e-08
1.52783e-08
1.53349e-08
1.5495e-08
1.56545e-08
1.59254e-08
1.52497e-08
1.531e-08
1.54247e-08
1.57425e-08
1.59921e-08
1.64707e-08
1.52534e-08
1.53569e-08
1.55642e-08
1.6129e-08
1.6593e-08
1.74859e-08
1.52646e-08
1.54478e-08
1.58096e-08
1.67415e-08
1.75095e-08
1.90849e-08
1.52894e-08
1.56384e-08
1.62923e-08
1.78305e-08
1.9107e-08
2.2028e-08
1.5334e-08
1.59788e-08
1.7055e-08
1.95706e-08
2.19229e-08
2.79949e-08
1.54158e-08
1.65942e-08
1.82023e-08
2.22284e-08
2.64006e-08
3.93865e-08
1.55617e-08
1.75546e-08
1.99784e-08
2.6524e-08
3.37607e-08
6.32574e-08
1.58023e-08
1.89557e-08
2.27889e-08
3.36882e-08
4.69084e-08
1.20481e-07
1.61639e-08
2.0987e-08
2.69445e-08
4.48973e-08
7.05477e-08
2.6526e-07
1.66625e-08
2.39946e-08
3.3025e-08
6.2319e-08
1.10765e-07
6.19208e-07
1.72993e-08
2.82526e-08
4.20789e-08
8.99255e-08
1.77428e-07
1.44448e-06
1.80606e-08
3.38419e-08
5.55642e-08
1.34772e-07
2.87115e-07
3.24956e-06
1.89188e-08
4.0738e-08
7.44786e-08
2.04063e-07
4.68328e-07
6.64887e-06
1.98358e-08
4.87548e-08
9.95061e-08
3.02005e-07
7.62246e-07
1.20835e-05
2.07671e-08
5.75264e-08
1.30702e-07
4.29404e-07
1.19417e-06
1.93899e-05
2.16666e-08
6.65385e-08
1.6729e-07
5.82417e-07
1.7741e-06
2.79749e-05
2.24914e-08
7.52027e-08
2.07671e-07
7.52833e-07
2.49128e-06
3.71151e-05
2.32056e-08
8.29526e-08
2.49633e-07
9.29646e-07
3.31487e-06
4.6227e-05
2.37833e-08
8.93309e-08
2.90712e-07
1.10118e-06
4.19978e-06
5.49299e-05
2.42095e-08
9.40478e-08
3.28525e-07
1.25714e-06
5.09486e-06
6.30021e-05
2.44801e-08
9.69974e-08
3.60678e-07
1.39098e-06
5.95071e-06
7.0322e-05
2.46005e-08
9.82395e-08
3.85495e-07
1.498e-06
6.72778e-06
7.68389e-05
2.45836e-08
9.79679e-08
4.02139e-07
1.57534e-06
7.39933e-06
8.25491e-05
2.44475e-08
9.64432e-08
4.10572e-07
1.62288e-06
7.94889e-06
8.74782e-05
2.42129e-08
9.39632e-08
4.11412e-07
1.64263e-06
8.36957e-06
9.16689e-05
2.39015e-08
9.08224e-08
4.05741e-07
1.63826e-06
8.66259e-06
9.51737e-05
2.35346e-08
8.72498e-08
3.94965e-07
1.61402e-06
8.83554e-06
9.80491e-05
2.31313e-08
8.34445e-08
3.80566e-07
1.57452e-06
8.90061e-06
0.000100353
2.27088e-08
7.9576e-08
3.63895e-07
1.52421e-06
8.873e-06
0.000102144
2.22813e-08
7.57792e-08
3.46103e-07
1.46714e-06
8.76935e-06
0.000103476
2.18607e-08
7.21549e-08
3.28119e-07
1.40676e-06
8.60646e-06
0.000104402
2.14559e-08
6.87732e-08
3.10646e-07
1.34589e-06
8.4009e-06
0.000104985
2.10741e-08
6.5678e-08
2.94183e-07
1.28673e-06
8.16782e-06
0.000105285
2.072e-08
6.28926e-08
2.79055e-07
1.23086e-06
7.92069e-06
0.000105359
2.0397e-08
6.04245e-08
2.65447e-07
1.17939e-06
7.67099e-06
0.000105255
2.01071e-08
5.827e-08
2.5344e-07
1.13302e-06
7.42819e-06
0.000105019
1.98511e-08
5.64176e-08
2.43038e-07
1.09208e-06
7.19972e-06
0.00010469
1.96291e-08
5.48507e-08
2.34193e-07
1.05669e-06
6.99115e-06
0.000104305
1.94403e-08
5.355e-08
2.26824e-07
1.02677e-06
6.80639e-06
0.000103895
1.92838e-08
5.24947e-08
2.20831e-07
1.00213e-06
6.64793e-06
0.000103487
1.9158e-08
5.16639e-08
2.16103e-07
9.82471e-07
6.51707e-06
0.000103107
1.90612e-08
5.10367e-08
2.1253e-07
9.67469e-07
6.41415e-06
0.000102776
1.89916e-08
5.05934e-08
2.10001e-07
9.56764e-07
6.33878e-06
0.00010251
1.89472e-08
5.03151e-08
2.08412e-07
9.49987e-07
6.28999e-06
0.000102325
1.8926e-08
5.01842e-08
2.07663e-07
9.46775e-07
6.26642e-06
0.000102231
2.25795e-09
1.37735e-09
1.22106e-09
1.12294e-09
1.05372e-09
1.00198e-09
9.61675e-10
9.29315e-10
9.02707e-10
8.80363e-10
8.61255e-10
8.44677e-10
8.3012e-10
8.17207e-10
8.05653e-10
7.95238e-10
7.8579e-10
7.77172e-10
7.69272e-10
7.62e-10
7.5528e-10
7.4905e-10
7.43255e-10
7.37849e-10
7.32795e-10
7.28057e-10
7.23606e-10
7.19417e-10
7.15466e-10
7.11734e-10
7.08203e-10
7.04857e-10
7.01682e-10
6.98665e-10
6.95795e-10
6.93062e-10
6.90455e-10
6.87968e-10
6.85591e-10
6.83319e-10
6.81144e-10
6.7906e-10
6.77062e-10
6.75146e-10
6.73305e-10
6.71538e-10
6.69838e-10
6.68202e-10
6.66628e-10
6.65112e-10
6.63651e-10
6.62242e-10
6.60883e-10
6.5957e-10
6.58303e-10
6.57079e-10
6.55896e-10
6.54752e-10
6.53645e-10
6.52573e-10
6.51536e-10
6.50532e-10
6.49558e-10
6.48615e-10
6.477e-10
6.46813e-10
6.45952e-10
6.45117e-10
6.44305e-10
6.43518e-10
6.42752e-10
6.42009e-10
6.41286e-10
6.40584e-10
6.39901e-10
6.39236e-10
6.38589e-10
6.3796e-10
6.37347e-10
6.36751e-10
6.3617e-10
6.35604e-10
6.35053e-10
6.34516e-10
6.33992e-10
6.33482e-10
6.32984e-10
6.32499e-10
6.32026e-10
6.31564e-10
6.31113e-10
6.30673e-10
6.30244e-10
6.29825e-10
6.29416e-10
6.29017e-10
6.28626e-10
6.28245e-10
6.27873e-10
6.2751e-10
6.27154e-10
6.26807e-10
6.26468e-10
6.26137e-10
6.25813e-10
6.25497e-10
6.25188e-10
6.24886e-10
6.2459e-10
6.24302e-10
6.2402e-10
6.23745e-10
6.23476e-10
6.23214e-10
6.22958e-10
6.22708e-10
6.22464e-10
6.22226e-10
6.21994e-10
6.21768e-10
6.21548e-10
6.21334e-10
6.21126e-10
6.20924e-10
6.20728e-10
6.20538e-10
6.20354e-10
6.20177e-10
6.20005e-10
6.1984e-10
6.19682e-10
6.1953e-10
6.19384e-10
6.19246e-10
6.19115e-10
6.18991e-10
6.18875e-10
6.18766e-10
6.18665e-10
6.18573e-10
6.18489e-10
6.18414e-10
6.18348e-10
6.18292e-10
6.18246e-10
6.1821e-10
6.18184e-10
6.1817e-10
6.18167e-10
6.18177e-10
6.18199e-10
6.18234e-10
6.18283e-10
6.18347e-10
6.18425e-10
6.18519e-10
6.18629e-10
6.18755e-10
6.189e-10
6.19063e-10
6.19244e-10
6.19446e-10
6.19669e-10
6.19913e-10
6.2018e-10
6.2047e-10
6.20785e-10
6.21126e-10
6.21493e-10
6.21887e-10
6.22311e-10
6.22764e-10
6.23249e-10
6.23766e-10
6.24317e-10
6.24903e-10
6.25526e-10
6.26187e-10
6.26888e-10
6.2763e-10
6.28415e-10
6.29245e-10
6.30123e-10
6.31048e-10
6.32025e-10
6.33054e-10
6.3414e-10
6.35281e-10
6.36486e-10
6.37532e-10
6.38374e-10
6.39234e-10
6.40118e-10
6.41022e-10
6.41947e-10
6.42892e-10
6.43859e-10
6.44847e-10
6.45856e-10
6.46887e-10
6.47939e-10
6.49012e-10
6.50108e-10
6.51225e-10
6.52364e-10
6.53525e-10
6.54709e-10
6.55915e-10
6.57144e-10
6.58395e-10
6.5967e-10
6.60967e-10
6.62288e-10
6.63633e-10
6.65001e-10
6.66394e-10
6.67811e-10
6.69252e-10
6.70719e-10
6.72211e-10
6.73729e-10
6.75273e-10
6.76843e-10
6.78441e-10
6.80067e-10
6.81721e-10
6.83403e-10
6.85116e-10
6.8686e-10
6.88635e-10
6.90442e-10
6.92283e-10
6.94159e-10
6.96072e-10
6.98022e-10
7.00013e-10
7.02045e-10
7.04121e-10
7.06244e-10
7.08416e-10
7.10643e-10
7.12924e-10
7.15272e-10
7.17681e-10
7.20173e-10
7.22733e-10
7.25407e-10
7.28147e-10
7.31063e-10
7.34021e-10
7.37281e-10
7.40503e-10
7.44293e-10
7.47842e-10
7.5251e-10
7.56492e-10
7.62709e-10
7.67479e-10
7.76455e-10
7.84052e-10
7.9719e-10
8.20601e-10
8.45968e-10
9.15177e-10
1.38744e-07
8.80412e-08
7.67377e-08
6.97267e-08
6.48058e-08
6.11469e-08
5.8308e-08
5.60364e-08
5.41738e-08
5.26138e-08
5.12828e-08
5.01305e-08
4.91205e-08
4.82263e-08
4.74273e-08
4.67082e-08
4.60568e-08
4.54634e-08
4.49201e-08
4.44204e-08
4.39593e-08
4.35321e-08
4.31351e-08
4.27652e-08
4.24196e-08
4.20959e-08
4.1792e-08
4.15062e-08
4.12368e-08
4.09825e-08
4.07421e-08
4.05144e-08
4.02984e-08
4.00933e-08
3.98983e-08
3.97127e-08
3.95358e-08
3.93671e-08
3.92059e-08
3.90518e-08
3.89044e-08
3.87633e-08
3.8628e-08
3.84983e-08
3.83738e-08
3.82542e-08
3.81393e-08
3.80288e-08
3.79224e-08
3.782e-08
3.77213e-08
3.76262e-08
3.75344e-08
3.74459e-08
3.73604e-08
3.72778e-08
3.7198e-08
3.71209e-08
3.70463e-08
3.69741e-08
3.69042e-08
3.68366e-08
3.6771e-08
3.67075e-08
3.66459e-08
3.65862e-08
3.65283e-08
3.64721e-08
3.64175e-08
3.63645e-08
3.63131e-08
3.62631e-08
3.62145e-08
3.61672e-08
3.61213e-08
3.60767e-08
3.60332e-08
3.59909e-08
3.59498e-08
3.59097e-08
3.58707e-08
3.58327e-08
3.57957e-08
3.57597e-08
3.57245e-08
3.56903e-08
3.56569e-08
3.56243e-08
3.55925e-08
3.55615e-08
3.55313e-08
3.55018e-08
3.5473e-08
3.54449e-08
3.54175e-08
3.53907e-08
3.53645e-08
3.5339e-08
3.5314e-08
3.52897e-08
3.52659e-08
3.52426e-08
3.52199e-08
3.51977e-08
3.5176e-08
3.51547e-08
3.5134e-08
3.51138e-08
3.5094e-08
3.50747e-08
3.50558e-08
3.50374e-08
3.50193e-08
3.50018e-08
3.49846e-08
3.49678e-08
3.49515e-08
3.49355e-08
3.492e-08
3.49048e-08
3.48901e-08
3.48757e-08
3.48618e-08
3.48482e-08
3.4835e-08
3.48223e-08
3.48099e-08
3.4798e-08
3.47865e-08
3.47753e-08
3.47647e-08
3.47544e-08
3.47446e-08
3.47353e-08
3.47264e-08
3.4718e-08
3.47101e-08
3.47027e-08
3.46958e-08
3.46894e-08
3.46837e-08
3.46785e-08
3.46739e-08
3.46699e-08
3.46665e-08
3.46639e-08
3.46619e-08
3.46607e-08
3.46602e-08
3.46605e-08
3.46616e-08
3.46636e-08
3.46665e-08
3.46703e-08
3.4675e-08
3.46808e-08
3.46876e-08
3.46955e-08
3.47046e-08
3.47148e-08
3.47263e-08
3.47391e-08
3.47532e-08
3.47687e-08
3.47857e-08
3.48042e-08
3.48243e-08
3.4846e-08
3.48695e-08
3.48947e-08
3.49218e-08
3.49509e-08
3.49819e-08
3.50151e-08
3.50504e-08
3.5088e-08
3.5128e-08
3.51705e-08
3.52155e-08
3.52632e-08
3.53137e-08
3.5367e-08
3.54234e-08
3.54829e-08
3.55458e-08
3.56119e-08
3.56818e-08
3.57552e-08
3.58328e-08
3.59e-08
3.59542e-08
3.60096e-08
3.60665e-08
3.61246e-08
3.61841e-08
3.6245e-08
3.63072e-08
3.63707e-08
3.64357e-08
3.6502e-08
3.65697e-08
3.66387e-08
3.67092e-08
3.67811e-08
3.68543e-08
3.6929e-08
3.70052e-08
3.70827e-08
3.71617e-08
3.72422e-08
3.73241e-08
3.74075e-08
3.74924e-08
3.75788e-08
3.76667e-08
3.77561e-08
3.78471e-08
3.79396e-08
3.80337e-08
3.81295e-08
3.82268e-08
3.83258e-08
3.84265e-08
3.85289e-08
3.8633e-08
3.87389e-08
3.88466e-08
3.89561e-08
3.90676e-08
3.9181e-08
3.92964e-08
3.94138e-08
3.95335e-08
3.96553e-08
3.97794e-08
3.9906e-08
4.00351e-08
4.01667e-08
4.03013e-08
4.04387e-08
4.05793e-08
4.07232e-08
4.08709e-08
4.10222e-08
4.11781e-08
4.13381e-08
4.15043e-08
4.16744e-08
4.18539e-08
4.20363e-08
4.22342e-08
4.2431e-08
4.26567e-08
4.28708e-08
4.31413e-08
4.33774e-08
4.37242e-08
4.3997e-08
4.44751e-08
4.48699e-08
4.55466e-08
4.65447e-08
4.76013e-08
5.46473e-08
1.04656e-06
7.28236e-07
6.37615e-07
5.808e-07
5.4067e-07
5.1071e-07
4.87395e-07
4.68693e-07
4.53329e-07
4.4044e-07
4.29431e-07
4.19889e-07
4.11519e-07
4.04102e-07
3.97471e-07
3.915e-07
3.86088e-07
3.81155e-07
3.76637e-07
3.72481e-07
3.68643e-07
3.65087e-07
3.61782e-07
3.58701e-07
3.55822e-07
3.53125e-07
3.50592e-07
3.4821e-07
3.45964e-07
3.43844e-07
3.41839e-07
3.39939e-07
3.38138e-07
3.36427e-07
3.348e-07
3.33251e-07
3.31774e-07
3.30366e-07
3.2902e-07
3.27734e-07
3.26504e-07
3.25325e-07
3.24196e-07
3.23112e-07
3.22072e-07
3.21074e-07
3.20114e-07
3.1919e-07
3.18302e-07
3.17446e-07
3.16621e-07
3.15827e-07
3.1506e-07
3.1432e-07
3.13606e-07
3.12916e-07
3.12249e-07
3.11604e-07
3.1098e-07
3.10377e-07
3.09793e-07
3.09227e-07
3.08679e-07
3.08148e-07
3.07633e-07
3.07134e-07
3.0665e-07
3.0618e-07
3.05723e-07
3.0528e-07
3.0485e-07
3.04432e-07
3.04026e-07
3.03631e-07
3.03247e-07
3.02873e-07
3.0251e-07
3.02156e-07
3.01812e-07
3.01477e-07
3.01151e-07
3.00833e-07
3.00524e-07
3.00222e-07
2.99928e-07
2.99642e-07
2.99362e-07
2.9909e-07
2.98824e-07
2.98565e-07
2.98312e-07
2.98065e-07
2.97824e-07
2.97589e-07
2.9736e-07
2.97135e-07
2.96917e-07
2.96703e-07
2.96494e-07
2.9629e-07
2.96091e-07
2.95896e-07
2.95706e-07
2.9552e-07
2.95339e-07
2.95161e-07
2.94988e-07
2.94818e-07
2.94653e-07
2.94491e-07
2.94333e-07
2.94179e-07
2.94028e-07
2.9388e-07
2.93737e-07
2.93596e-07
2.93459e-07
2.93326e-07
2.93195e-07
2.93069e-07
2.92945e-07
2.92825e-07
2.92707e-07
2.92594e-07
2.92483e-07
2.92376e-07
2.92272e-07
2.92172e-07
2.92075e-07
2.91981e-07
2.91891e-07
2.91805e-07
2.91722e-07
2.91643e-07
2.91568e-07
2.91497e-07
2.9143e-07
2.91367e-07
2.91308e-07
2.91254e-07
2.91204e-07
2.91159e-07
2.91119e-07
2.91084e-07
2.91054e-07
2.9103e-07
2.91011e-07
2.90999e-07
2.90992e-07
2.90992e-07
2.90998e-07
2.91012e-07
2.91033e-07
2.91061e-07
2.91097e-07
2.91141e-07
2.91194e-07
2.91256e-07
2.91327e-07
2.91407e-07
2.91498e-07
2.91599e-07
2.91711e-07
2.91834e-07
2.9197e-07
2.92117e-07
2.92277e-07
2.92451e-07
2.92638e-07
2.9284e-07
2.93057e-07
2.9329e-07
2.93538e-07
2.93804e-07
2.94087e-07
2.94389e-07
2.9471e-07
2.9505e-07
2.95412e-07
2.95794e-07
2.96199e-07
2.96627e-07
2.9708e-07
2.97557e-07
2.98062e-07
2.98593e-07
2.99153e-07
2.99742e-07
3.00364e-07
3.00901e-07
3.01337e-07
3.01781e-07
3.02237e-07
3.02703e-07
3.03179e-07
3.03667e-07
3.04165e-07
3.04673e-07
3.05193e-07
3.05723e-07
3.06264e-07
3.06817e-07
3.0738e-07
3.07954e-07
3.08539e-07
3.09136e-07
3.09743e-07
3.10362e-07
3.10992e-07
3.11633e-07
3.12286e-07
3.1295e-07
3.13626e-07
3.14313e-07
3.15012e-07
3.15723e-07
3.16446e-07
3.17181e-07
3.17928e-07
3.18687e-07
3.19458e-07
3.20242e-07
3.21039e-07
3.21849e-07
3.22672e-07
3.23508e-07
3.24358e-07
3.25221e-07
3.26099e-07
3.26992e-07
3.27899e-07
3.28821e-07
3.29759e-07
3.30713e-07
3.31684e-07
3.32673e-07
3.33679e-07
3.34705e-07
3.3575e-07
3.36816e-07
3.37905e-07
3.39016e-07
3.40153e-07
3.41316e-07
3.42509e-07
3.4373e-07
3.44991e-07
3.46281e-07
3.47626e-07
3.48997e-07
3.50456e-07
3.51921e-07
3.53545e-07
3.55118e-07
3.56997e-07
3.58701e-07
3.6099e-07
3.62883e-07
3.65855e-07
3.68239e-07
3.72398e-07
3.76259e-07
3.82058e-07
4.27824e-07
3.83841e-06
2.95616e-06
2.62046e-06
2.39942e-06
2.24091e-06
2.12149e-06
2.028e-06
1.95265e-06
1.89054e-06
1.83828e-06
1.79355e-06
1.75472e-06
1.7206e-06
1.69033e-06
1.66324e-06
1.63882e-06
1.61667e-06
1.59647e-06
1.57795e-06
1.56091e-06
1.54516e-06
1.53057e-06
1.517e-06
1.50434e-06
1.49251e-06
1.48142e-06
1.47101e-06
1.46121e-06
1.45197e-06
1.44324e-06
1.43499e-06
1.42717e-06
1.41975e-06
1.4127e-06
1.406e-06
1.39961e-06
1.39353e-06
1.38772e-06
1.38218e-06
1.37687e-06
1.3718e-06
1.36694e-06
1.36228e-06
1.35781e-06
1.35352e-06
1.3494e-06
1.34544e-06
1.34163e-06
1.33796e-06
1.33443e-06
1.33103e-06
1.32775e-06
1.32458e-06
1.32153e-06
1.31858e-06
1.31573e-06
1.31297e-06
1.31031e-06
1.30774e-06
1.30524e-06
1.30283e-06
1.3005e-06
1.29823e-06
1.29604e-06
1.29391e-06
1.29185e-06
1.28985e-06
1.2879e-06
1.28602e-06
1.28419e-06
1.28241e-06
1.28068e-06
1.279e-06
1.27737e-06
1.27578e-06
1.27424e-06
1.27274e-06
1.27128e-06
1.26985e-06
1.26847e-06
1.26712e-06
1.26581e-06
1.26453e-06
1.26328e-06
1.26206e-06
1.26088e-06
1.25972e-06
1.2586e-06
1.2575e-06
1.25643e-06
1.25538e-06
1.25436e-06
1.25336e-06
1.25239e-06
1.25144e-06
1.25052e-06
1.24961e-06
1.24873e-06
1.24786e-06
1.24702e-06
1.2462e-06
1.24539e-06
1.2446e-06
1.24384e-06
1.24308e-06
1.24235e-06
1.24163e-06
1.24093e-06
1.24025e-06
1.23958e-06
1.23892e-06
1.23828e-06
1.23766e-06
1.23705e-06
1.23645e-06
1.23587e-06
1.23531e-06
1.23475e-06
1.23421e-06
1.23369e-06
1.23317e-06
1.23268e-06
1.23219e-06
1.23172e-06
1.23126e-06
1.23082e-06
1.23038e-06
1.22997e-06
1.22956e-06
1.22917e-06
1.2288e-06
1.22844e-06
1.22809e-06
1.22776e-06
1.22745e-06
1.22715e-06
1.22687e-06
1.2266e-06
1.22636e-06
1.22613e-06
1.22591e-06
1.22572e-06
1.22555e-06
1.2254e-06
1.22527e-06
1.22516e-06
1.22507e-06
1.22501e-06
1.22497e-06
1.22496e-06
1.22497e-06
1.22502e-06
1.22509e-06
1.22519e-06
1.22532e-06
1.22549e-06
1.22569e-06
1.22593e-06
1.2262e-06
1.22651e-06
1.22686e-06
1.22726e-06
1.22769e-06
1.22817e-06
1.2287e-06
1.22928e-06
1.22991e-06
1.23059e-06
1.23133e-06
1.23212e-06
1.23298e-06
1.2339e-06
1.23488e-06
1.23593e-06
1.23705e-06
1.23824e-06
1.23951e-06
1.24085e-06
1.24228e-06
1.24379e-06
1.24539e-06
1.24709e-06
1.24888e-06
1.25076e-06
1.25276e-06
1.25486e-06
1.25707e-06
1.2594e-06
1.26185e-06
1.26397e-06
1.26569e-06
1.26745e-06
1.26925e-06
1.27109e-06
1.27297e-06
1.27489e-06
1.27685e-06
1.27886e-06
1.28091e-06
1.283e-06
1.28513e-06
1.2873e-06
1.28952e-06
1.29178e-06
1.29408e-06
1.29643e-06
1.29881e-06
1.30124e-06
1.30372e-06
1.30623e-06
1.30879e-06
1.3114e-06
1.31405e-06
1.31674e-06
1.31948e-06
1.32226e-06
1.32508e-06
1.32796e-06
1.33087e-06
1.33384e-06
1.33685e-06
1.3399e-06
1.343e-06
1.34616e-06
1.34935e-06
1.3526e-06
1.3559e-06
1.35925e-06
1.36265e-06
1.3661e-06
1.36961e-06
1.37317e-06
1.37678e-06
1.38046e-06
1.38419e-06
1.38798e-06
1.39184e-06
1.39576e-06
1.39975e-06
1.40381e-06
1.40795e-06
1.41216e-06
1.41645e-06
1.42084e-06
1.42531e-06
1.42988e-06
1.43456e-06
1.43935e-06
1.44428e-06
1.44932e-06
1.45455e-06
1.45989e-06
1.46554e-06
1.47119e-06
1.47743e-06
1.48344e-06
1.49051e-06
1.49687e-06
1.5053e-06
1.51168e-06
1.52391e-06
1.52264e-06
1.54629e-06
1.61137e-06
9.41732e-06
8.16721e-06
7.45533e-06
6.9048e-06
6.49147e-06
6.17206e-06
5.91794e-06
5.71078e-06
5.53853e-06
5.39272e-06
5.26727e-06
5.15793e-06
5.06155e-06
4.97581e-06
4.89891e-06
4.82945e-06
4.76635e-06
4.70871e-06
4.65581e-06
4.60707e-06
4.562e-06
4.52019e-06
4.48127e-06
4.44495e-06
4.41098e-06
4.37912e-06
4.34918e-06
4.32099e-06
4.29441e-06
4.26929e-06
4.24552e-06
4.22299e-06
4.20161e-06
4.18129e-06
4.16196e-06
4.14355e-06
4.12599e-06
4.10924e-06
4.09323e-06
4.07792e-06
4.06326e-06
4.04922e-06
4.03576e-06
4.02285e-06
4.01045e-06
3.99854e-06
3.98709e-06
3.97607e-06
3.96546e-06
3.95525e-06
3.9454e-06
3.93591e-06
3.92675e-06
3.91791e-06
3.90937e-06
3.90113e-06
3.89315e-06
3.88545e-06
3.87799e-06
3.87077e-06
3.86379e-06
3.85702e-06
3.85046e-06
3.84411e-06
3.83795e-06
3.83197e-06
3.82617e-06
3.82055e-06
3.81508e-06
3.80978e-06
3.80463e-06
3.79962e-06
3.79475e-06
3.79002e-06
3.78542e-06
3.78095e-06
3.77659e-06
3.77236e-06
3.76823e-06
3.76422e-06
3.7603e-06
3.7565e-06
3.75278e-06
3.74917e-06
3.74564e-06
3.74221e-06
3.73886e-06
3.73559e-06
3.7324e-06
3.7293e-06
3.72626e-06
3.7233e-06
3.72041e-06
3.71759e-06
3.71484e-06
3.71215e-06
3.70953e-06
3.70696e-06
3.70446e-06
3.70201e-06
3.69962e-06
3.69728e-06
3.695e-06
3.69277e-06
3.69059e-06
3.68846e-06
3.68637e-06
3.68434e-06
3.68235e-06
3.68041e-06
3.67851e-06
3.67665e-06
3.67484e-06
3.67307e-06
3.67134e-06
3.66965e-06
3.668e-06
3.6664e-06
3.66483e-06
3.6633e-06
3.66181e-06
3.66036e-06
3.65894e-06
3.65757e-06
3.65624e-06
3.65494e-06
3.65368e-06
3.65247e-06
3.65129e-06
3.65015e-06
3.64906e-06
3.648e-06
3.64699e-06
3.64602e-06
3.6451e-06
3.64422e-06
3.64339e-06
3.6426e-06
3.64187e-06
3.64118e-06
3.64055e-06
3.63997e-06
3.63945e-06
3.63899e-06
3.63858e-06
3.63824e-06
3.63796e-06
3.63775e-06
3.63761e-06
3.63754e-06
3.63755e-06
3.63763e-06
3.6378e-06
3.63805e-06
3.63839e-06
3.63882e-06
3.63934e-06
3.63997e-06
3.6407e-06
3.64153e-06
3.64248e-06
3.64355e-06
3.64473e-06
3.64605e-06
3.64749e-06
3.64907e-06
3.6508e-06
3.65267e-06
3.65469e-06
3.65688e-06
3.65923e-06
3.66175e-06
3.66446e-06
3.66735e-06
3.67044e-06
3.67372e-06
3.67722e-06
3.68093e-06
3.68488e-06
3.68905e-06
3.69347e-06
3.69815e-06
3.70309e-06
3.7083e-06
3.7138e-06
3.7196e-06
3.72571e-06
3.73213e-06
3.73891e-06
3.74475e-06
3.7495e-06
3.75434e-06
3.7593e-06
3.76437e-06
3.76955e-06
3.77484e-06
3.78024e-06
3.78576e-06
3.7914e-06
3.79715e-06
3.80301e-06
3.80898e-06
3.81507e-06
3.82128e-06
3.8276e-06
3.83403e-06
3.84058e-06
3.84724e-06
3.85402e-06
3.86091e-06
3.86792e-06
3.87505e-06
3.88229e-06
3.88965e-06
3.89712e-06
3.90471e-06
3.91242e-06
3.92024e-06
3.92819e-06
3.93625e-06
3.94444e-06
3.95274e-06
3.96116e-06
3.96971e-06
3.97838e-06