/*--------------------------------*- C++ -*----------------------------------*\
| =========                 |                                                 |
| \\      /  F ield         | OpenFOAM: The Open Source CFD Toolbox           |
|  \\    /   O peration     | Version:  v2006                                 |
|   \\  /    A nd           | Website:  www.openfoam.com                      |
|    \\/     M anipulation  |                                                 |
\*---------------------------------------------------------------------------*/
FoamFile
{
    version     2.0;
    format      ascii;
    class       volScalarField;
    location    "11000";
    object      nut;
}
// * * * * * * * * * * * * * * * * * * * * * * * * * * * * * * * * * * * * * //

dimensions      [0 2 -1 0 0 0 0];


internalField   nonuniform List<scalar> 
184860
(
1.91401e-08
5.34243e-08
2.36761e-07
1.16055e-06
8.02553e-06
0.000117756
1.91691e-08
5.36115e-08
2.37892e-07
1.16567e-06
8.06265e-06
0.000117876
1.92295e-08
5.40087e-08
2.40292e-07
1.17644e-06
8.1392e-06
0.000118107
1.93238e-08
5.46407e-08
2.4411e-07
1.19343e-06
8.25692e-06
0.00011843
1.94544e-08
5.55338e-08
2.49508e-07
1.21718e-06
8.41684e-06
0.000118824
1.96233e-08
5.67159e-08
2.56656e-07
1.24822e-06
8.61895e-06
0.000119263
1.98326e-08
5.82159e-08
2.65727e-07
1.28702e-06
8.86196e-06
0.000119718
2.00835e-08
6.00631e-08
2.76886e-07
1.33398e-06
9.14295e-06
0.000120154
2.03771e-08
6.22857e-08
2.90277e-07
1.38931e-06
9.457e-06
0.000120534
2.07134e-08
6.49089e-08
3.0601e-07
1.45299e-06
9.79692e-06
0.000120816
2.10914e-08
6.7952e-08
3.24123e-07
1.52466e-06
1.01528e-05
0.00012095
2.15089e-08
7.14245e-08
3.44556e-07
1.60351e-06
1.05121e-05
0.000120881
2.19619e-08
7.53209e-08
3.671e-07
1.68809e-06
1.08591e-05
0.000120549
2.24442e-08
7.96145e-08
3.91348e-07
1.77626e-06
1.11754e-05
0.000119882
2.29473e-08
8.42495e-08
4.16634e-07
1.86498e-06
1.144e-05
0.000118822
2.34595e-08
8.91332e-08
4.41991e-07
1.9503e-06
1.16299e-05
0.00011731
2.39662e-08
9.41284e-08
4.66107e-07
2.02726e-06
1.17207e-05
0.000115286
2.44491e-08
9.90482e-08
4.87328e-07
2.09e-06
1.1689e-05
0.000112685
2.48865e-08
1.03655e-07
5.037e-07
2.13201e-06
1.15118e-05
0.000109439
2.52539e-08
1.07668e-07
5.13054e-07
2.14645e-06
1.117e-05
0.000105478
2.55248e-08
1.10782e-07
5.13299e-07
2.12688e-06
1.06501e-05
0.000100731
2.56719e-08
1.1261e-07
5.02788e-07
2.06781e-06
9.94682e-06
9.51316e-05
2.567e-08
1.12752e-07
4.80649e-07
1.96582e-06
9.06577e-06
8.86184e-05
2.54978e-08
1.1087e-07
4.47009e-07
1.82086e-06
8.02632e-06
8.11489e-05
2.51413e-08
1.06728e-07
4.03217e-07
1.6369e-06
6.86324e-06
7.2711e-05
2.45968e-08
1.00299e-07
3.51884e-07
1.42101e-06
5.63113e-06
6.33461e-05
2.38734e-08
9.17924e-08
2.96632e-07
1.18298e-06
4.40255e-06
5.31829e-05
2.2994e-08
8.16811e-08
2.4094e-07
9.38709e-07
3.2555e-06
4.24802e-05
2.19953e-08
7.06524e-08
1.88383e-07
7.05992e-07
2.26087e-06
3.1681e-05
2.09253e-08
5.95081e-08
1.42025e-07
5.01345e-07
1.46795e-06
2.15149e-05
1.98396e-08
4.90253e-08
1.03874e-07
3.36382e-07
8.93267e-07
1.29367e-05
1.87953e-08
3.98212e-08
7.46095e-08
2.15294e-07
5.18916e-07
6.73954e-06
1.78457e-08
3.22689e-08
5.36882e-08
1.34828e-07
3.02539e-07
3.0935e-06
1.70336e-08
2.64902e-08
3.97814e-08
8.70222e-08
1.78576e-07
1.31046e-06
1.63866e-08
2.24246e-08
3.10423e-08
5.89668e-08
1.0696e-07
5.38342e-07
1.59136e-08
1.98168e-08
2.53197e-08
4.18328e-08
6.57639e-08
2.22706e-07
1.5603e-08
1.80769e-08
2.1482e-08
3.10956e-08
4.27503e-08
9.93857e-08
1.54251e-08
1.68986e-08
1.89775e-08
2.44819e-08
3.08572e-08
5.31649e-08
1.53381e-08
1.61412e-08
1.75348e-08
2.08886e-08
2.45339e-08
3.4458e-08
1.52993e-08
1.57528e-08
1.6641e-08
1.87163e-08
2.0722e-08
2.54211e-08
1.52778e-08
1.5536e-08
1.60479e-08
1.72786e-08
1.832e-08
2.05672e-08
1.52611e-08
1.53994e-08
1.56806e-08
1.64138e-08
1.70835e-08
1.83312e-08
1.52543e-08
1.53447e-08
1.55253e-08
1.59792e-08
1.63931e-08
1.71311e-08
1.52525e-08
1.53132e-08
1.54191e-08
1.56808e-08
1.58929e-08
1.62876e-08
1.52479e-08
1.52809e-08
1.53376e-08
1.54786e-08
1.56274e-08
1.58633e-08
1.5245e-08
1.52677e-08
1.53087e-08
1.53986e-08
1.54852e-08
1.56276e-08
1.52441e-08
1.52583e-08
1.52801e-08
1.53295e-08
1.53626e-08
1.54244e-08
1.52424e-08
1.52487e-08
1.52622e-08
1.52925e-08
1.53204e-08
1.53647e-08
1.52419e-08
1.52456e-08
1.52528e-08
1.52688e-08
1.52807e-08
1.53131e-08
1.52417e-08
1.52437e-08
1.52476e-08
1.52564e-08
1.52644e-08
1.52867e-08
1.52417e-08
1.52435e-08
1.52453e-08
1.52495e-08
1.5252e-08
1.52612e-08
1.52416e-08
1.52428e-08
1.52435e-08
1.52452e-08
1.52471e-08
1.52527e-08
1.52416e-08
1.52426e-08
1.5243e-08
1.52438e-08
1.52442e-08
1.52459e-08
1.52416e-08
1.52427e-08
1.52431e-08
1.52439e-08
1.52435e-08
1.52435e-08
1.52416e-08
1.52428e-08
1.52431e-08
1.52439e-08
1.52438e-08
1.52437e-08
1.52416e-08
1.52428e-08
1.52431e-08
1.52438e-08
1.52438e-08
1.52437e-08
1.52416e-08
1.52428e-08
1.5243e-08
1.52437e-08
1.52437e-08
1.52437e-08
1.52416e-08
1.52427e-08
1.5243e-08
1.52437e-08
1.52437e-08
1.52436e-08
1.52416e-08
1.52427e-08
1.5243e-08
1.52436e-08
1.52436e-08
1.52436e-08
1.52416e-08
1.52427e-08
1.52429e-08
1.52436e-08
1.52436e-08
1.52435e-08
1.52416e-08
1.52427e-08
1.52429e-08
1.52435e-08
1.52435e-08
1.52434e-08
1.52416e-08
1.52426e-08
1.52429e-08
1.52434e-08
1.52435e-08
1.52434e-08
1.52415e-08
1.52426e-08
1.52428e-08
1.52434e-08
1.52434e-08
1.52433e-08
1.52415e-08
1.52426e-08
1.52428e-08
1.52433e-08
1.52434e-08
1.52433e-08
1.52415e-08
1.52426e-08
1.52428e-08
1.52432e-08
1.52433e-08
1.52432e-08
1.52415e-08
1.52425e-08
1.52427e-08
1.52432e-08
1.52432e-08
1.52431e-08
1.52415e-08
1.52425e-08
1.52427e-08
1.52431e-08
1.52432e-08
1.5243e-08
1.52415e-08
1.52425e-08
1.52426e-08
1.5243e-08
1.52431e-08
1.5243e-08
1.52415e-08
1.52424e-08
1.52426e-08
1.52429e-08
1.5243e-08
1.52429e-08
1.52415e-08
1.52424e-08
1.52425e-08
1.52429e-08
1.52429e-08
1.52428e-08
1.52415e-08
1.52424e-08
1.52425e-08
1.52428e-08
1.52429e-08
1.52427e-08
1.52414e-08
1.52423e-08
1.52424e-08
1.52427e-08
1.52428e-08
1.52426e-08
1.52414e-08
1.52423e-08
1.52424e-08
1.52426e-08
1.52427e-08
1.52425e-08
1.52414e-08
1.52422e-08
1.52423e-08
1.52426e-08
1.52426e-08
1.52425e-08
1.52414e-08
1.52422e-08
1.52423e-08
1.52425e-08
1.52426e-08
1.52424e-08
1.52414e-08
1.52422e-08
1.52422e-08
1.52424e-08
1.52425e-08
1.52423e-08
1.52414e-08
1.52421e-08
1.52422e-08
1.52423e-08
1.52424e-08
1.52422e-08
1.52414e-08
1.52421e-08
1.52421e-08
1.52422e-08
1.52423e-08
1.52421e-08
1.52415e-08
1.5242e-08
1.52421e-08
1.52422e-08
1.52422e-08
1.5242e-08
1.52415e-08
1.5242e-08
1.5242e-08
1.52421e-08
1.52421e-08
1.52419e-08
1.52415e-08
1.52419e-08
1.52419e-08
1.5242e-08
1.5242e-08
1.52418e-08
1.52415e-08
1.52419e-08
1.52419e-08
1.52419e-08
1.52419e-08
1.52418e-08
1.52415e-08
1.52419e-08
1.52417e-08
1.52418e-08
1.52418e-08
1.52416e-08
1.52414e-08
1.52419e-08
1.52417e-08
1.52417e-08
1.52417e-08
1.52415e-08
1.52414e-08
1.52418e-08
1.52416e-08
1.52416e-08
1.52416e-08
1.52414e-08
1.52414e-08
1.52418e-08
1.52416e-08
1.52416e-08
1.52416e-08
1.52413e-08
1.52414e-08
1.52417e-08
1.52416e-08
1.52415e-08
1.52415e-08
1.52413e-08
1.52414e-08
1.52417e-08
1.52416e-08
1.52415e-08
1.52415e-08
1.52412e-08
1.52414e-08
1.52416e-08
1.52416e-08
1.52415e-08
1.52414e-08
1.52411e-08
1.52414e-08
1.52416e-08
1.52416e-08
1.52414e-08
1.52413e-08
1.5241e-08
1.52414e-08
1.52416e-08
1.52415e-08
1.52413e-08
1.52412e-08
1.52408e-08
1.52414e-08
1.52415e-08
1.52415e-08
1.52413e-08
1.52411e-08
1.52408e-08
1.52414e-08
1.52415e-08
1.52414e-08
1.52412e-08
1.5241e-08
1.52407e-08
1.52414e-08
1.52415e-08
1.52414e-08
1.52412e-08
1.5241e-08
1.52405e-08
1.52414e-08
1.52414e-08
1.52413e-08
1.52412e-08
1.52409e-08
1.52405e-08
1.52414e-08
1.52414e-08
1.52413e-08
1.52411e-08
1.52409e-08
1.52405e-08
1.52413e-08
1.52413e-08
1.52412e-08
1.5241e-08
1.52408e-08
1.52404e-08
1.52413e-08
1.52413e-08
1.52412e-08
1.5241e-08
1.52408e-08
1.52404e-08
1.52414e-08
1.52414e-08
1.52413e-08
1.52411e-08
1.52408e-08
1.52405e-08
1.52414e-08
1.52414e-08
1.52413e-08
1.52412e-08
1.52409e-08
1.52405e-08
1.52414e-08
1.52415e-08
1.52414e-08
1.52412e-08
1.52409e-08
1.52406e-08
1.52414e-08
1.52415e-08
1.52414e-08
1.52412e-08
1.5241e-08
1.52407e-08
1.52414e-08
1.52415e-08
1.52415e-08
1.52413e-08
1.52411e-08
1.52408e-08
1.52414e-08
1.52416e-08
1.52415e-08
1.52413e-08
1.52412e-08
1.52408e-08
1.52414e-08
1.52416e-08
1.52416e-08
1.52414e-08
1.52413e-08
1.5241e-08
1.52414e-08
1.52416e-08
1.52416e-08
1.52415e-08
1.52414e-08
1.52411e-08
1.52414e-08
1.52417e-08
1.52416e-08
1.52415e-08
1.52415e-08
1.52412e-08
1.52414e-08
1.52417e-08
1.52416e-08
1.52415e-08
1.52415e-08
1.52413e-08
1.52414e-08
1.52417e-08
1.52416e-08
1.52416e-08
1.52416e-08
1.52413e-08
1.52414e-08
1.52418e-08
1.52416e-08
1.52416e-08
1.52416e-08
1.52414e-08
1.52414e-08
1.52418e-08
1.52417e-08
1.52417e-08
1.52417e-08
1.52415e-08
1.52414e-08
1.52419e-08
1.52417e-08
1.52418e-08
1.52418e-08
1.52416e-08
1.52414e-08
1.52419e-08
1.52419e-08
1.52419e-08
1.52419e-08
1.52417e-08
1.52414e-08
1.5242e-08
1.52419e-08
1.5242e-08
1.5242e-08
1.52418e-08
1.52414e-08
1.5242e-08
1.5242e-08
1.52421e-08
1.52421e-08
1.52419e-08
1.52415e-08
1.5242e-08
1.52421e-08
1.52422e-08
1.52422e-08
1.5242e-08
1.52415e-08
1.52421e-08
1.52421e-08
1.52422e-08
1.52423e-08
1.52421e-08
1.52415e-08
1.52421e-08
1.52422e-08
1.52423e-08
1.52424e-08
1.52422e-08
1.52415e-08
1.52421e-08
1.52422e-08
1.52424e-08
1.52425e-08
1.52423e-08
1.52415e-08
1.52422e-08
1.52423e-08
1.52425e-08
1.52425e-08
1.52424e-08
1.52415e-08
1.52422e-08
1.52423e-08
1.52425e-08
1.52426e-08
1.52424e-08
1.52415e-08
1.52422e-08
1.52424e-08
1.52426e-08
1.52427e-08
1.52425e-08
1.52415e-08
1.52423e-08
1.52424e-08
1.52427e-08
1.52428e-08
1.52426e-08
1.52415e-08
1.52423e-08
1.52425e-08
1.52428e-08
1.52429e-08
1.52427e-08
1.52415e-08
1.52424e-08
1.52425e-08
1.52428e-08
1.52429e-08
1.52428e-08
1.52415e-08
1.52424e-08
1.52426e-08
1.52429e-08
1.5243e-08
1.52429e-08
1.52415e-08
1.52424e-08
1.52426e-08
1.5243e-08
1.52431e-08
1.52429e-08
1.52415e-08
1.52425e-08
1.52427e-08
1.52431e-08
1.52432e-08
1.5243e-08
1.52415e-08
1.52425e-08
1.52427e-08
1.52432e-08
1.52432e-08
1.52431e-08
1.52415e-08
1.52425e-08
1.52427e-08
1.52432e-08
1.52433e-08
1.52432e-08
1.52415e-08
1.52426e-08
1.52428e-08
1.52433e-08
1.52433e-08
1.52432e-08
1.52415e-08
1.52426e-08
1.52428e-08
1.52434e-08
1.52434e-08
1.52433e-08
1.52416e-08
1.52426e-08
1.52429e-08
1.52434e-08
1.52435e-08
1.52434e-08
1.52416e-08
1.52427e-08
1.52429e-08
1.52435e-08
1.52435e-08
1.52434e-08
1.52416e-08
1.52427e-08
1.52429e-08
1.52435e-08
1.52436e-08
1.52435e-08
1.52416e-08
1.52427e-08
1.5243e-08
1.52436e-08
1.52436e-08
1.52436e-08
1.52416e-08
1.52427e-08
1.5243e-08
1.52437e-08
1.52437e-08
1.52436e-08
1.52416e-08
1.52428e-08
1.5243e-08
1.52437e-08
1.52437e-08
1.52436e-08
1.52416e-08
1.52428e-08
1.5243e-08
1.52437e-08
1.52438e-08
1.52437e-08
1.52416e-08
1.52428e-08
1.52431e-08
1.52437e-08
1.52439e-08
1.52439e-08
1.52416e-08
1.52428e-08
1.52432e-08
1.52439e-08
1.5244e-08
1.52439e-08
1.52416e-08
1.52429e-08
1.52432e-08
1.5244e-08
1.52444e-08
1.52436e-08
1.52416e-08
1.52429e-08
1.52433e-08
1.5244e-08
1.52452e-08
1.52486e-08
1.52417e-08
1.52433e-08
1.52443e-08
1.52461e-08
1.52485e-08
1.52562e-08
1.52417e-08
1.52437e-08
1.52466e-08
1.52519e-08
1.52571e-08
1.52708e-08
1.52418e-08
1.52446e-08
1.52491e-08
1.52572e-08
1.52679e-08
1.52857e-08
1.52422e-08
1.52478e-08
1.52581e-08
1.52781e-08
1.53001e-08
1.53359e-08
1.52433e-08
1.52532e-08
1.52672e-08
1.53e-08
1.53415e-08
1.54028e-08
1.52446e-08
1.52631e-08
1.52948e-08
1.53634e-08
1.5424e-08
1.55266e-08
1.52449e-08
1.52707e-08
1.53228e-08
1.5438e-08
1.55558e-08
1.57367e-08
1.52498e-08
1.52954e-08
1.53717e-08
1.55545e-08
1.57132e-08
1.59879e-08
1.52529e-08
1.53272e-08
1.5469e-08
1.58101e-08
1.61027e-08
1.66397e-08
1.5254e-08
1.53629e-08
1.55905e-08
1.61451e-08
1.66707e-08
1.76178e-08
1.52674e-08
1.54542e-08
1.58217e-08
1.66978e-08
1.75166e-08
1.91293e-08
1.5286e-08
1.56202e-08
1.6286e-08
1.78458e-08
1.92493e-08
2.23665e-08
1.53121e-08
1.58913e-08
1.69887e-08
1.958e-08
2.219e-08
2.86154e-08
1.53658e-08
1.64096e-08
1.80742e-08
2.22511e-08
2.68196e-08
4.04545e-08
1.54832e-08
1.7317e-08
1.9872e-08
2.68468e-08
3.47863e-08
6.64783e-08
1.57068e-08
1.86808e-08
2.28186e-08
3.47562e-08
5.02585e-08
1.34234e-07
1.60734e-08
2.06887e-08
2.72361e-08
4.73909e-08
7.88949e-08
3.09581e-07
1.66054e-08
2.37254e-08
3.38301e-08
6.76089e-08
1.29174e-07
7.46227e-07
1.73068e-08
2.8353e-08
4.39966e-08
1.01046e-07
2.15863e-07
1.78207e-06
1.8162e-08
3.46875e-08
6.00341e-08
1.58439e-07
3.65628e-07
4.09354e-06
1.91385e-08
4.27377e-08
8.34326e-08
2.50833e-07
6.26688e-07
8.54581e-06
2.01909e-08
5.23074e-08
1.15282e-07
3.84766e-07
1.05787e-06
1.55299e-05
2.12658e-08
6.29533e-08
1.55755e-07
5.61153e-07
1.69396e-06
2.46415e-05
2.23077e-08
7.40171e-08
2.0378e-07
7.73483e-07
2.54214e-06
3.50121e-05
2.32646e-08
8.47254e-08
2.57059e-07
1.00869e-06
3.57597e-06
4.57485e-05
2.4093e-08
9.43232e-08
3.12424e-07
1.25005e-06
4.74023e-06
5.62221e-05
2.4761e-08
1.02198e-07
3.66384e-07
1.48056e-06
5.963e-06
6.6072e-05
2.52503e-08
1.07964e-07
4.15484e-07
1.68637e-06
7.16925e-06
7.50925e-05
2.55556e-08
1.11479e-07
4.5642e-07
1.85921e-06
8.29167e-06
8.31879e-05
2.56831e-08
1.12829e-07
4.8697e-07
1.9925e-06
9.28348e-06
9.0335e-05
2.56485e-08
1.12271e-07
5.06132e-07
2.08343e-06
1.01147e-05
9.6555e-05
2.54735e-08
1.10151e-07
5.14033e-07
2.13285e-06
1.07699e-05
0.000101895
2.51831e-08
1.06861e-07
5.11704e-07
2.14469e-06
1.12461e-05
0.000106414
2.48037e-08
1.02753e-07
5.00873e-07
2.12447e-06
1.15502e-05
0.000110179
2.43607e-08
9.81198e-08
4.83603e-07
2.07858e-06
1.16967e-05
0.000113259
2.38774e-08
9.32269e-08
4.61962e-07
2.0136e-06
1.17047e-05
0.000115721
2.33742e-08
8.82954e-08
4.37794e-07
1.93577e-06
1.1597e-05
0.00011763
2.28681e-08
8.34978e-08
4.12647e-07
1.85061e-06
1.13961e-05
0.000119048
2.23729e-08
7.89599e-08
3.87734e-07
1.76276e-06
1.11257e-05
0.000120034
2.18994e-08
7.47655e-08
3.63949e-07
1.67593e-06
1.08078e-05
0.000120642
2.14555e-08
7.09643e-08
3.41895e-07
1.59292e-06
1.04623e-05
0.000120933
2.10468e-08
6.75794e-08
3.21941e-07
1.51572e-06
1.01068e-05
0.000120973
2.06771e-08
6.46142e-08
3.0427e-07
1.44565e-06
9.75606e-06
0.000120822
2.03484e-08
6.20582e-08
2.88929e-07
1.38345e-06
9.42203e-06
0.000120531
2.00615e-08
5.9892e-08
2.75871e-07
1.32943e-06
9.114e-06
0.000120148
1.98163e-08
5.80911e-08
2.64989e-07
1.2836e-06
8.83877e-06
0.000119713
1.96119e-08
5.66279e-08
2.56139e-07
1.24572e-06
8.60093e-06
0.000119263
1.94468e-08
5.54743e-08
2.49161e-07
1.21541e-06
8.40322e-06
0.00011883
1.93191e-08
5.46022e-08
2.4389e-07
1.1922e-06
8.24681e-06
0.000118442
1.92269e-08
5.39846e-08
2.40158e-07
1.1756e-06
8.13167e-06
0.000118125
1.91678e-08
5.35962e-08
2.37811e-07
1.16507e-06
8.05679e-06
0.000117899
1.91394e-08
5.3413e-08
2.36704e-07
1.16007e-06
8.02047e-06
0.000117781
4.83613e-09
3.01232e-09
2.63221e-09
2.40078e-09
2.24169e-09
2.12477e-09
2.03458e-09
1.96275e-09
1.90399e-09
1.85481e-09
1.81286e-09
1.77652e-09
1.74464e-09
1.7164e-09
1.69114e-09
1.6684e-09
1.64778e-09
1.62899e-09
1.61176e-09
1.59592e-09
1.58128e-09
1.5677e-09
1.55508e-09
1.5433e-09
1.53229e-09
1.52197e-09
1.51228e-09
1.50316e-09
1.49455e-09
1.48642e-09
1.47873e-09
1.47144e-09
1.46452e-09
1.45795e-09
1.4517e-09
1.44575e-09
1.44007e-09
1.43465e-09
1.42947e-09
1.42452e-09
1.41978e-09
1.41524e-09
1.41088e-09
1.4067e-09
1.40269e-09
1.39884e-09
1.39513e-09
1.39157e-09
1.38813e-09
1.38482e-09
1.38164e-09
1.37857e-09
1.3756e-09
1.37274e-09
1.36997e-09
1.3673e-09
1.36472e-09
1.3622e-09
1.35975e-09
1.35718e-09
1.35518e-09
1.35299e-09
1.35087e-09
1.34881e-09
1.34681e-09
1.34487e-09
1.34299e-09
1.34117e-09
1.3394e-09
1.33767e-09
1.336e-09
1.33437e-09
1.33279e-09
1.33126e-09
1.32976e-09
1.32831e-09
1.32689e-09
1.32551e-09
1.32417e-09
1.32287e-09
1.32159e-09
1.32035e-09
1.31915e-09
1.31797e-09
1.31682e-09
1.3157e-09
1.31461e-09
1.31355e-09
1.31251e-09
1.3115e-09
1.31051e-09
1.30954e-09
1.3086e-09
1.30768e-09
1.30678e-09
1.30591e-09
1.30505e-09
1.30421e-09
1.3034e-09
1.3026e-09
1.30182e-09
1.30105e-09
1.30031e-09
1.29958e-09
1.29887e-09
1.29817e-09
1.29749e-09
1.29683e-09
1.29618e-09
1.29554e-09
1.29492e-09
1.29431e-09
1.29372e-09
1.29314e-09
1.29258e-09
1.29203e-09
1.29149e-09
1.29096e-09
1.29045e-09
1.28995e-09
1.28947e-09
1.28899e-09
1.28853e-09
1.28808e-09
1.28765e-09
1.28723e-09
1.28682e-09
1.28642e-09
1.28604e-09
1.28567e-09
1.28532e-09
1.28498e-09
1.28465e-09
1.28434e-09
1.28405e-09
1.28377e-09
1.2835e-09
1.28326e-09
1.28303e-09
1.28281e-09
1.28262e-09
1.28244e-09
1.28229e-09
1.28215e-09
1.28204e-09
1.28194e-09
1.28187e-09
1.28183e-09
1.2818e-09
1.28181e-09
1.28184e-09
1.2819e-09
1.28198e-09
1.2821e-09
1.28225e-09
1.28243e-09
1.28265e-09
1.2829e-09
1.28319e-09
1.28351e-09
1.28388e-09
1.28429e-09
1.28475e-09
1.28525e-09
1.2858e-09
1.28639e-09
1.28704e-09
1.28775e-09
1.28851e-09
1.28932e-09
1.2902e-09
1.29115e-09
1.29215e-09
1.29323e-09
1.29438e-09
1.2956e-09
1.2969e-09
1.29828e-09
1.29975e-09
1.3013e-09
1.30294e-09
1.30468e-09
1.30652e-09
1.30846e-09
1.31051e-09
1.31266e-09
1.31494e-09
1.31733e-09
1.31986e-09
1.32206e-09
1.32382e-09
1.32563e-09
1.32748e-09
1.32938e-09
1.33132e-09
1.3333e-09
1.33533e-09
1.3374e-09
1.33952e-09
1.34168e-09
1.34389e-09
1.34614e-09
1.34843e-09
1.35077e-09
1.35316e-09
1.35559e-09
1.35806e-09
1.36058e-09
1.36315e-09
1.36577e-09
1.36843e-09
1.37114e-09
1.3739e-09
1.37671e-09
1.37956e-09
1.38247e-09
1.38542e-09
1.38842e-09
1.39148e-09
1.39457e-09
1.39772e-09
1.40091e-09
1.40415e-09
1.40745e-09
1.4108e-09
1.4142e-09
1.41767e-09
1.42118e-09
1.42476e-09
1.4284e-09
1.4321e-09
1.43582e-09
1.43971e-09
1.44329e-09
1.44791e-09
1.45205e-09
1.45586e-09
1.45976e-09
1.46391e-09
1.46823e-09
1.4726e-09
1.47705e-09
1.48162e-09
1.48627e-09
1.4911e-09
1.49595e-09
1.50106e-09
1.5061e-09
1.51158e-09
1.51682e-09
1.52269e-09
1.52832e-09
1.53427e-09
1.54116e-09
1.54585e-09
1.55693e-09
1.55615e-09
1.57882e-09
1.56571e-09
1.60266e-09
1.60592e-09
1.55639e-09
1.96105e-09
1.14439e-09
3.18268e-07
2.10463e-07
1.81621e-07
1.64226e-07
1.52289e-07
1.43536e-07
1.36798e-07
1.31439e-07
1.27063e-07
1.23404e-07
1.20288e-07
1.17591e-07
1.15228e-07
1.13136e-07
1.11268e-07
1.09587e-07
1.08064e-07
1.06676e-07
1.05406e-07
1.04238e-07
1.0316e-07
1.0216e-07
1.01232e-07
1.00366e-07
9.95564e-08
9.87983e-08
9.80864e-08
9.74166e-08
9.67853e-08
9.61891e-08
9.56253e-08
9.50911e-08
9.45845e-08
9.41032e-08
9.36455e-08
9.32097e-08
9.27943e-08
9.23979e-08
9.20192e-08
9.16572e-08
9.13108e-08
9.0979e-08
9.0661e-08
9.03559e-08
9.0063e-08
8.97816e-08
8.95111e-08
8.92509e-08
8.90005e-08
8.87592e-08
8.85268e-08
8.83028e-08
8.80866e-08
8.78779e-08
8.76765e-08
8.74817e-08
8.72937e-08
8.71104e-08
8.69318e-08
8.67483e-08
8.65987e-08
8.64396e-08
8.62851e-08
8.61351e-08
8.59899e-08
8.58489e-08
8.57121e-08
8.55793e-08
8.54503e-08
8.5325e-08
8.52033e-08
8.50851e-08
8.49701e-08
8.48584e-08
8.47497e-08
8.4644e-08
8.45411e-08
8.4441e-08
8.43435e-08
8.42486e-08
8.41562e-08
8.40661e-08
8.39784e-08
8.38929e-08
8.38095e-08
8.37283e-08
8.36491e-08
8.35718e-08
8.34964e-08
8.34228e-08
8.33511e-08
8.3281e-08
8.32126e-08
8.31459e-08
8.30807e-08
8.3017e-08
8.29548e-08
8.28941e-08
8.28347e-08
8.27768e-08
8.27201e-08
8.26648e-08
8.26107e-08
8.25578e-08
8.25061e-08
8.24556e-08
8.24063e-08
8.2358e-08
8.23109e-08
8.22648e-08
8.22198e-08
8.21757e-08
8.21328e-08
8.20907e-08
8.20499e-08
8.201e-08
8.19707e-08
8.19325e-08
8.18953e-08
8.18591e-08
8.18238e-08
8.17894e-08
8.1756e-08
8.17234e-08
8.16918e-08
8.16612e-08
8.16315e-08
8.16027e-08
8.15749e-08
8.1548e-08
8.15222e-08
8.14974e-08
8.14736e-08
8.14508e-08
8.14292e-08
8.14086e-08
8.13892e-08
8.13709e-08
8.13539e-08
8.13381e-08
8.13236e-08
8.13104e-08
8.12986e-08
8.12882e-08
8.12794e-08
8.1272e-08
8.12663e-08
8.12623e-08
8.126e-08
8.12594e-08
8.12608e-08
8.12641e-08
8.12695e-08
8.12769e-08
8.12866e-08
8.12986e-08
8.1313e-08
8.13299e-08
8.13494e-08
8.13716e-08
8.13967e-08
8.14247e-08
8.14558e-08
8.14901e-08
8.15278e-08
8.15689e-08
8.16137e-08
8.16622e-08
8.17147e-08
8.17712e-08
8.1832e-08
8.18972e-08
8.1967e-08
8.20416e-08
8.21212e-08
8.2206e-08
8.22962e-08
8.23921e-08
8.24938e-08
8.26015e-08
8.27157e-08
8.28364e-08
8.2964e-08
8.30987e-08
8.32411e-08
8.33909e-08
8.35492e-08
8.37154e-08
8.38911e-08
8.40432e-08
8.41661e-08
8.42917e-08
8.44204e-08
8.45521e-08
8.46869e-08
8.48247e-08
8.49655e-08
8.51094e-08
8.52564e-08
8.54065e-08
8.55597e-08
8.57159e-08
8.58753e-08
8.60378e-08
8.62035e-08
8.63721e-08
8.65441e-08
8.6719e-08
8.68972e-08
8.70785e-08
8.72631e-08
8.74509e-08
8.7642e-08
8.78364e-08
8.80342e-08
8.82352e-08
8.84397e-08
8.86474e-08
8.88587e-08
8.9073e-08
8.92911e-08
8.95119e-08
8.97366e-08
8.99644e-08
9.01959e-08
9.04309e-08
9.06695e-08
9.09119e-08
9.1158e-08
9.14081e-08
9.16628e-08
9.19191e-08
9.2186e-08
9.24376e-08
9.27398e-08
9.30149e-08
9.329e-08
9.35673e-08
9.38521e-08
9.41452e-08
9.44433e-08
9.47466e-08
9.50561e-08
9.53706e-08
9.56947e-08
9.60221e-08
9.63637e-08
9.6703e-08
9.70671e-08
9.74175e-08
9.78055e-08
9.81775e-08
9.85662e-08
9.90172e-08
9.9312e-08
1.00022e-07
9.99431e-08
1.01359e-07
1.00419e-07
1.02671e-07
1.02596e-07
9.80368e-08
1.1875e-07
8.61321e-08
2.35142e-06
1.70766e-06
1.48367e-06
1.34681e-06
1.25212e-06
1.18231e-06
1.12837e-06
1.08535e-06
1.05012e-06
1.02062e-06
9.95446e-07
9.73635e-07
9.54501e-07
9.37545e-07
9.22389e-07
9.0874e-07
8.96368e-07
8.8509e-07
8.74759e-07
8.65254e-07
8.56475e-07
8.48337e-07
8.4077e-07
8.33713e-07
8.27116e-07
8.20933e-07
8.15126e-07
8.09661e-07
8.04507e-07
7.99641e-07
7.95036e-07
7.90674e-07
7.86535e-07
7.82603e-07
7.78863e-07
7.75301e-07
7.71905e-07
7.68664e-07
7.65568e-07
7.62607e-07
7.59774e-07
7.5706e-07
7.54458e-07
7.51961e-07
7.49564e-07
7.47262e-07
7.45048e-07
7.42918e-07
7.40868e-07
7.38893e-07
7.3699e-07
7.35155e-07
7.33384e-07
7.31675e-07
7.30026e-07
7.2843e-07
7.26889e-07
7.25388e-07
7.23925e-07
7.22472e-07
7.21196e-07
7.19893e-07
7.18627e-07
7.17398e-07
7.16207e-07
7.15051e-07
7.1393e-07
7.12841e-07
7.11784e-07
7.10757e-07
7.09759e-07
7.0879e-07
7.07847e-07
7.06931e-07
7.0604e-07
7.05173e-07
7.04329e-07
7.03508e-07
7.02709e-07
7.01931e-07
7.01173e-07
7.00434e-07
6.99715e-07
6.99013e-07
6.9833e-07
6.97663e-07
6.97013e-07
6.96379e-07
6.95761e-07
6.95158e-07
6.94569e-07
6.93994e-07
6.93433e-07
6.92885e-07
6.9235e-07
6.91828e-07
6.91318e-07
6.9082e-07
6.90333e-07
6.89857e-07
6.89392e-07
6.88938e-07
6.88494e-07
6.8806e-07
6.87636e-07
6.87221e-07
6.86816e-07
6.8642e-07
6.86033e-07
6.85655e-07
6.85285e-07
6.84924e-07
6.84571e-07
6.84225e-07
6.8389e-07
6.83562e-07
6.8324e-07
6.82926e-07
6.8262e-07
6.82323e-07
6.82032e-07
6.8175e-07
6.81474e-07
6.81207e-07
6.80947e-07
6.80694e-07
6.80449e-07
6.80212e-07
6.79983e-07
6.79761e-07
6.79548e-07
6.79343e-07
6.79146e-07
6.78957e-07
6.78777e-07
6.78607e-07
6.78445e-07
6.78293e-07
6.7815e-07
6.78018e-07
6.77895e-07
6.77784e-07
6.77683e-07
6.77594e-07
6.77517e-07
6.77452e-07
6.774e-07
6.77362e-07
6.77337e-07
6.77327e-07
6.77331e-07
6.77351e-07
6.77388e-07
6.77441e-07
6.77512e-07
6.77601e-07
6.7771e-07
6.77838e-07
6.77987e-07
6.78157e-07
6.7835e-07
6.78567e-07
6.78808e-07
6.79074e-07
6.79367e-07
6.79687e-07
6.80037e-07
6.80416e-07
6.80826e-07
6.81268e-07
6.81744e-07
6.82255e-07
6.82803e-07
6.83388e-07
6.84012e-07
6.84678e-07
6.85386e-07
6.86138e-07
6.86937e-07
6.87783e-07
6.8868e-07
6.89628e-07
6.90631e-07
6.91689e-07
6.92807e-07
6.93984e-07
6.95227e-07
6.96533e-07
6.97911e-07
6.99102e-07
7.00067e-07
7.01053e-07
7.02063e-07
7.03095e-07
7.04152e-07
7.05232e-07
7.06335e-07
7.07462e-07
7.08614e-07
7.09788e-07
7.10988e-07
7.12211e-07
7.13458e-07
7.14729e-07
7.16025e-07
7.17344e-07
7.18688e-07
7.20055e-07
7.21446e-07
7.22861e-07
7.243e-07
7.25764e-07
7.27252e-07
7.28766e-07
7.30305e-07
7.3187e-07
7.33461e-07
7.35077e-07
7.3672e-07
7.38387e-07
7.40081e-07
7.41797e-07
7.43539e-07
7.45306e-07
7.47097e-07
7.48915e-07
7.50759e-07
7.52631e-07
7.54529e-07
7.56458e-07
7.58419e-07
7.60403e-07
7.62446e-07
7.64439e-07
7.66617e-07
7.68701e-07
7.70902e-07
7.73086e-07
7.75263e-07
7.77486e-07
7.79755e-07
7.82059e-07
7.84399e-07
7.86777e-07
7.89208e-07
7.91677e-07
7.94227e-07
7.96776e-07
7.99473e-07
8.02084e-07
8.04933e-07
8.07667e-07
8.10494e-07
8.13741e-07
8.1585e-07
8.20778e-07
8.20181e-07
8.29721e-07
8.22512e-07
8.37851e-07
8.33278e-07
7.97225e-07
8.94714e-07
7.58221e-07
8.25677e-06
6.75264e-06
5.977e-06
5.46522e-06
5.10219e-06
4.83082e-06
4.61934e-06
4.44962e-06
4.31002e-06
4.19271e-06
4.09236e-06
4.00522e-06
3.92865e-06
3.8607e-06
3.79988e-06
3.74506e-06
3.69533e-06
3.64995e-06
3.60836e-06
3.57007e-06
3.53469e-06
3.50187e-06
3.47134e-06
3.44287e-06
3.41623e-06
3.39126e-06
3.3678e-06
3.34571e-06
3.32489e-06
3.30521e-06
3.28659e-06
3.26894e-06
3.2522e-06
3.23629e-06
3.22115e-06
3.20674e-06
3.19299e-06
3.17986e-06
3.16733e-06
3.15534e-06
3.14386e-06
3.13286e-06
3.12232e-06
3.11221e-06
3.10249e-06
3.09316e-06
3.08419e-06
3.07556e-06
3.06725e-06
3.05924e-06
3.05152e-06
3.04408e-06
3.0369e-06
3.02997e-06
3.02328e-06
3.01681e-06
3.01056e-06
3.00447e-06
2.99856e-06
2.99291e-06
2.98747e-06
2.98218e-06
2.97704e-06
2.97205e-06
2.96722e-06
2.96253e-06
2.95798e-06
2.95356e-06
2.94927e-06
2.9451e-06
2.94105e-06
2.93712e-06
2.93329e-06
2.92957e-06
2.92595e-06
2.92244e-06
2.91901e-06
2.91568e-06
2.91243e-06
2.90927e-06
2.90619e-06
2.9032e-06
2.90027e-06
2.89743e-06
2.89465e-06
2.89194e-06
2.88931e-06
2.88673e-06
2.88422e-06
2.88177e-06
2.87938e-06
2.87704e-06
2.87477e-06
2.87254e-06
2.87037e-06
2.86825e-06
2.86618e-06
2.86415e-06
2.86217e-06
2.86024e-06
2.85835e-06
2.85651e-06
2.8547e-06
2.85294e-06
2.85122e-06
2.84953e-06
2.84789e-06
2.84628e-06
2.84471e-06
2.84317e-06
2.84167e-06
2.8402e-06
2.83876e-06
2.83736e-06
2.83599e-06
2.83466e-06
2.83336e-06
2.83208e-06
2.83083e-06
2.82962e-06
2.82844e-06
2.82729e-06
2.82617e-06
2.82508e-06
2.82402e-06
2.82299e-06
2.82199e-06
2.82102e-06
2.82008e-06
2.81918e-06
2.81831e-06
2.81747e-06
2.81666e-06
2.81589e-06
2.81515e-06
2.81445e-06
2.81378e-06
2.81315e-06
2.81256e-06
2.81201e-06
2.8115e-06
2.81103e-06
2.81061e-06
2.81023e-06
2.8099e-06
2.80961e-06
2.80938e-06
2.8092e-06
2.80908e-06
2.80901e-06
2.809e-06
2.80905e-06
2.80917e-06
2.80935e-06
2.8096e-06
2.80993e-06
2.81033e-06
2.8108e-06
2.81136e-06
2.812e-06
2.81273e-06
2.81356e-06
2.81447e-06
2.81549e-06
2.81661e-06
2.81784e-06
2.81918e-06
2.82064e-06
2.82222e-06
2.82393e-06
2.82576e-06
2.82774e-06
2.82985e-06
2.83212e-06
2.83453e-06
2.83711e-06
2.83985e-06
2.84276e-06
2.84585e-06
2.84913e-06
2.8526e-06
2.85628e-06
2.86016e-06
2.86426e-06
2.86859e-06
2.87315e-06
2.87796e-06
2.88302e-06
2.88836e-06
2.89296e-06
2.8967e-06
2.90051e-06
2.90442e-06
2.90842e-06
2.9125e-06
2.91668e-06
2.92095e-06
2.9253e-06
2.92975e-06
2.93429e-06
2.93892e-06
2.94364e-06
2.94845e-06
2.95335e-06
2.95835e-06
2.96344e-06
2.96862e-06
2.97389e-06
2.97925e-06
2.9847e-06
2.99024e-06
2.99587e-06
3.00159e-06
3.00741e-06
3.01332e-06
3.01932e-06
3.02542e-06
3.03162e-06
3.03791e-06
3.0443e-06
3.05078e-06
3.05736e-06
3.06402e-06
3.07079e-06
3.07764e-06
3.08458e-06
3.09162e-06
3.09877e-06
3.106e-06
3.11335e-06
3.12078e-06
3.12835e-06
3.13602e-06
3.14381e-06
3.15156e-06
3.15942e-06
3.16782e-06
3.17624e-06
3.18452e-06
3.1929e-06
3.20145e-06
3.21015e-06
3.21893e-06
3.22787e-06
3.23691e-06
3.24614e-06
3.25554e-06
3.26502e-06
3.27487e-06
3.28454e-06
3.29488e-06
3.30491e-06
3.31527e-06
3.32692e-06
3.33517e-06
3.35175e-06
3.35201e-06
3.38218e-06
3.36165e-06
3.40736e-06
3.39042e-06
3.22687e-06
3.36711e-06
3.0777e-06
1.85714e-05
1.73714e-05
1.61247e-05
1.50571e-05
1.42307e-05
1.35816e-05
1.30594e-05
1.26309e-05
1.22725e-05
1.19674e-05
1.17039e-05
1.14732e-05
1.12692e-05
1.10871e-05
1.09234e-05
1.07753e-05
1.06405e-05
1.05172e-05
1.04038e-05
1.02992e-05
1.02024e-05
1.01124e-05
1.00285e-05
9.9502e-06
9.87683e-06
9.80797e-06
9.7432e-06
9.68217e-06
9.62455e-06
9.57007e-06
9.51848e-06
9.46955e-06
9.42309e-06
9.37891e-06
9.33685e-06
9.29676e-06
9.25852e-06
9.222e-06
9.18708e-06
9.15368e-06
9.12169e-06
9.09103e-06
9.06163e-06
9.03341e-06
9.0063e-06
8.98024e-06
8.95518e-06
8.93106e-06
8.90783e-06
8.88545e-06
8.86387e-06
8.84306e-06
8.82297e-06
8.80357e-06
8.78484e-06
8.76672e-06
8.74921e-06
8.73219e-06
8.71575e-06
8.70053e-06
8.68456e-06
8.66971e-06
8.65531e-06
8.64133e-06
8.62777e-06
8.61462e-06
8.60185e-06
8.58946e-06
8.57742e-06
8.56572e-06
8.55436e-06
8.54332e-06
8.53258e-06
8.52214e-06
8.51198e-06
8.5021e-06
8.49248e-06
8.48312e-06
8.474e-06
8.46513e-06
8.45648e-06
8.44806e-06
8.43985e-06
8.43185e-06
8.42405e-06
8.41644e-06
8.40902e-06
8.40179e-06
8.39473e-06
8.38784e-06
8.38111e-06
8.37455e-06
8.36814e-06
8.36189e-06
8.35578e-06
8.34981e-06
8.34399e-06
8.33829e-06
8.33273e-06
8.32729e-06
8.32198e-06
8.31679e-06
8.31172e-06
8.30675e-06
8.30191e-06
8.29717e-06
8.29253e-06
8.288e-06
8.28358e-06
8.27925e-06
8.27502e-06
8.27088e-06
8.26684e-06
8.26289e-06
8.25902e-06
8.25528e-06
8.25161e-06
8.24801e-06
8.2445e-06
8.24108e-06
8.23774e-06
8.23449e-06
8.23133e-06
8.22825e-06
8.22526e-06
8.22235e-06
8.21952e-06
8.21678e-06
8.21413e-06
8.21157e-06
8.20909e-06
8.20671e-06
8.20441e-06
8.20221e-06
8.20011e-06
8.1981e-06
8.1962e-06
8.1944e-06
8.1927e-06
8.19111e-06
8.18963e-06
8.18827e-06
8.18703e-06
8.18591e-06
8.18492e-06
8.18406e-06
8.18334e-06
8.18276e-06
8.18234e-06
8.18206e-06
8.18195e-06
8.18201e-06
8.18223e-06
8.18264e-06
8.18324e-06
8.18403e-06
8.18502e-06
8.18622e-06
8.18765e-06
8.1893e-06
8.19119e-06
8.19333e-06
8.19572e-06
8.19839e-06
8.20133e-06
8.20457e-06
8.2081e-06
8.21195e-06
8.21613e-06
8.22065e-06
8.22552e-06
8.23075e-06
8.23637e-06
8.24238e-06
8.24881e-06
8.25565e-06
8.26295e-06
8.2707e-06
8.27893e-06
8.28766e-06
8.2969e-06
8.30668e-06
8.31702e-06
8.32793e-06
8.33946e-06
8.3516e-06
8.36441e-06
8.37787e-06
8.39206e-06
8.40428e-06
8.41423e-06
8.42439e-06
8.43477e-06
8.44539e-06
8.45624e-06
8.46733e-06
8.47866e-06
8.49022e-06
8.50202e-06
8.51404e-06
8.52631e-06
8.53881e-06
8.55155e-06
8.56452e-06
8.57773e-06
8.59119e-06
8.60487e-06
8.61881e-06
8.63296e-06
8.64736e-06
8.66198e-06
8.67683e-06
8.69192e-06
8.70723e-06
8.72278e-06
8.73856e-06
8.75458e-06
8.77083e-06
8.78732e-06
8.80407e-06
8.82103e-06
8.83827e-06
8.85571e-06
8.87341e-06