/*--------------------------------*- C++ -*----------------------------------*\
| =========                 |                                                 |
| \\      /  F ield         | OpenFOAM: The Open Source CFD Toolbox           |
|  \\    /   O peration     | Version:  v1912                                 |
|   \\  /    A nd           | Website:  www.openfoam.com                      |
|    \\/     M anipulation  |                                                 |
\*---------------------------------------------------------------------------*/
FoamFile
{
    version     2.0;
    format      ascii;
    class       volScalarField;
    location    "10000";
    object      nut;
}
// * * * * * * * * * * * * * * * * * * * * * * * * * * * * * * * * * * * * * //

dimensions      [0 2 -1 0 0 0 0];


internalField   nonuniform List<scalar> 
20540
(
1.15418e-06
0.00016268
1.1756e-06
0.000162934
1.2296e-06
0.000163509
1.33156e-06
0.000164449
1.50194e-06
0.000165752
1.76547e-06
0.000167318
2.14497e-06
0.00016888
2.64357e-06
0.000169878
3.21071e-06
0.000169544
3.69892e-06
0.000166801
3.85704e-06
0.000159975
3.41586e-06
0.000146733
2.33009e-06
0.000123891
1.0528e-06
8.77545e-05
2.67717e-07
3.88867e-05
4.8705e-08
4.55761e-06
2.12159e-08
2.31364e-07
1.64976e-08
2.86157e-08
1.57175e-08
1.72104e-08
1.52771e-08
1.54271e-08
1.52624e-08
1.53043e-08
1.52429e-08
1.52496e-08
1.52443e-08
1.5245e-08
1.52454e-08
1.52451e-08
1.52452e-08
1.52449e-08
1.52449e-08
1.52446e-08
1.52446e-08
1.52443e-08
1.52441e-08
1.52438e-08
1.52436e-08
1.52433e-08
1.5243e-08
1.52425e-08
1.52424e-08
1.52416e-08
1.52417e-08
1.5241e-08
1.52417e-08
1.5241e-08
1.52423e-08
1.52416e-08
1.5243e-08
1.52425e-08
1.52436e-08
1.52432e-08
1.52441e-08
1.52438e-08
1.52445e-08
1.52442e-08
1.52449e-08
1.52446e-08
1.52452e-08
1.52449e-08
1.52454e-08
1.5245e-08
1.52441e-08
1.52448e-08
1.52427e-08
1.52456e-08
1.52494e-08
1.5267e-08
1.52783e-08
1.53567e-08
1.54415e-08
1.59926e-08
1.57358e-08
2.04741e-08
1.82681e-08
7.48183e-08
2.53301e-08
1.18338e-06
1.06463e-07
1.74833e-05
5.26459e-07
6.46311e-05
1.53579e-06
0.000106483
2.76693e-06
0.000135241
3.60253e-06
0.000153152
3.812e-06
0.000163372
3.53725e-06
0.000168446
3.02971e-06
0.000170252
2.49424e-06
0.000170132
2.0391e-06
0.000168951
1.69645e-06
0.000167386
1.45852e-06
0.000165881
1.30393e-06
0.000164649
1.21076e-06
0.000163763
1.16102e-06
0.000163221
1.14113e-06
0.000162982
1.26157e-08
8.24229e-09
7.09915e-09
6.4707e-09
6.07823e-09
5.81173e-09
5.61927e-09
5.47115e-09
5.35513e-09
5.26213e-09
5.18528e-09
5.12095e-09
5.06661e-09
5.01997e-09
4.97939e-09
4.94386e-09
4.91266e-09
4.88512e-09
4.86059e-09
4.83859e-09
4.81874e-09
4.8008e-09
4.78454e-09
4.7698e-09
4.75639e-09
4.74414e-09
4.73291e-09
4.72258e-09
4.71306e-09
4.70425e-09
4.6961e-09
4.68854e-09
4.68154e-09
4.67504e-09
4.66901e-09
4.66341e-09
4.65822e-09
4.65341e-09
4.64895e-09
4.64485e-09
4.64107e-09
4.63837e-09
4.63619e-09
4.63345e-09
4.63103e-09
4.62874e-09
4.62807e-09
4.63115e-09
4.63017e-09
4.62981e-09
4.63509e-09
4.63224e-09
4.63141e-09
4.63664e-09
4.63902e-09
4.64366e-09
4.65132e-09
4.66032e-09
4.67043e-09
4.68321e-09
4.69841e-09
4.71609e-09
4.73539e-09
4.75435e-09
4.77402e-09
4.79261e-09
4.8125e-09
4.83373e-09
4.85628e-09
4.88018e-09
4.90552e-09
4.93219e-09
4.96054e-09
4.99009e-09
5.02186e-09
5.05435e-09
5.09031e-09
5.12575e-09
5.16738e-09
5.20565e-09
5.25573e-09
5.29791e-09
5.35967e-09
5.41459e-09
5.48571e-09
5.63072e-09
5.67854e-09
2.38742e-08
1.34031e-06
9.73573e-07
8.30968e-07
7.51441e-07
7.01398e-07
6.67343e-07
6.42784e-07
6.23912e-07
6.09153e-07
5.9734e-07
5.87593e-07
5.79448e-07
5.72577e-07
5.66687e-07
5.61568e-07
5.57092e-07
5.53164e-07
5.49699e-07
5.46617e-07
5.43854e-07
5.41364e-07
5.39115e-07
5.37079e-07
5.35233e-07
5.33555e-07
5.32024e-07
5.30623e-07
5.29335e-07
5.28148e-07
5.27051e-07
5.26038e-07
5.251e-07
5.24231e-07
5.23426e-07
5.22681e-07
5.21991e-07
5.21351e-07
5.2076e-07
5.20214e-07
5.19711e-07
5.1925e-07
5.19214e-07
5.1929e-07
5.18936e-07
5.18613e-07
5.18134e-07
5.18124e-07
5.19042e-07
5.18934e-07
5.18899e-07
5.19819e-07
5.18994e-07
5.1867e-07
5.1924e-07
5.19182e-07
5.1976e-07
5.2077e-07
5.21871e-07
5.22846e-07
5.24376e-07
5.26192e-07
5.28295e-07
5.30509e-07
5.32841e-07
5.35532e-07
5.37761e-07
5.40125e-07
5.42638e-07
5.453e-07
5.48109e-07
5.51075e-07
5.54185e-07
5.57475e-07
5.60887e-07
5.64537e-07
5.68249e-07
5.72326e-07
5.76323e-07
5.8096e-07
5.8521e-07
5.90634e-07
5.95234e-07
6.01564e-07
6.07408e-07
6.14104e-07
6.27571e-07
6.34397e-07
1.18785e-06
1.76843e-05
1.42111e-05
1.21854e-05
1.10002e-05
1.02336e-05
9.70115e-06
9.31118e-06
9.00744e-06
8.76705e-06
8.57259e-06
8.41066e-06
8.27425e-06
8.15832e-06
8.05828e-06
7.97081e-06
7.89391e-06
7.82611e-06
7.76604e-06
7.71238e-06
7.66409e-06
7.62043e-06
7.58086e-06
7.54495e-06
7.51232e-06
7.48258e-06
7.45539e-06
7.43044e-06
7.40748e-06
7.38627e-06
7.36666e-06
7.34849e-06
7.33166e-06
7.31606e-06
7.30159e-06
7.28817e-06
7.27573e-06
7.26419e-06
7.25351e-06
7.24362e-06
7.23452e-06
7.22614e-06
7.22004e-06
7.2147e-06
7.20805e-06
7.20194e-06
7.19676e-06
7.19578e-06
7.2004e-06
7.19938e-06
7.19801e-06
7.20356e-06
7.20208e-06
7.20267e-06
7.20775e-06
7.21344e-06
7.22456e-06
7.23884e-06
7.2559e-06
7.27582e-06
7.3004e-06
7.32956e-06
7.36326e-06
7.40314e-06
7.44406e-06
7.48149e-06
7.51734e-06
7.55509e-06
7.59509e-06
7.63726e-06
7.68166e-06
7.7283e-06
7.77704e-06
7.82825e-06
7.88117e-06
7.93727e-06
7.99412e-06
8.0557e-06
8.11601e-06
8.18422e-06
8.24714e-06
8.32384e-06
8.38993e-06
8.47312e-06
8.54897e-06
8.65036e-06
8.71885e-06
8.98004e-06
8.58288e-06
5.2241e-05
5.30456e-05
5.08719e-05
4.87923e-05
4.71708e-05
4.59012e-05
4.48987e-05
4.40664e-05
4.33784e-05
4.28005e-05
4.2303e-05
4.18741e-05
4.15023e-05
4.1175e-05
4.0884e-05
4.06249e-05
4.03941e-05
4.01874e-05
4.0001e-05
3.98316e-05
3.96772e-05
3.95364e-05
3.9408e-05
3.92907e-05
3.91832e-05
3.90845e-05
3.89934e-05
3.89091e-05
3.8831e-05
3.87584e-05
3.86909e-05
3.86282e-05
3.85698e-05
3.85155e-05
3.8465e-05
3.8418e-05
3.83742e-05
3.83335e-05
3.82956e-05
3.82605e-05
3.8228e-05
3.81986e-05
3.81717e-05
3.81471e-05
3.81252e-05
3.81059e-05
3.80904e-05
3.80823e-05
3.80745e-05
3.80675e-05
3.80721e-05
3.8074e-05
3.80809e-05
3.80978e-05
3.81207e-05
3.81528e-05
3.81939e-05
3.82445e-05
3.8306e-05
3.83795e-05
3.84667e-05
3.85677e-05
3.86853e-05
3.87974e-05
3.88968e-05
3.90007e-05
3.91093e-05
3.92239e-05
3.93434e-05
3.9469e-05
3.95987e-05
3.97345e-05
3.98739e-05
4.00187e-05
4.01672e-05
4.03195e-05
4.04768e-05
4.06346e-05
4.0801e-05
4.09573e-05
4.11418e-05
4.12819e-05
4.1499e-05
4.15574e-05
4.20068e-05
4.11447e-05
4.42759e-05
3.20391e-05
9.10296e-05
0.000101859
0.000103082
0.000102039
0.000100784
9.96073e-05
9.85905e-05
9.76804e-05
9.68961e-05
9.62129e-05
9.56049e-05
9.50702e-05
9.45993e-05
9.41776e-05
9.37968e-05
9.34544e-05
9.31473e-05
9.28704e-05
9.26185e-05
9.23879e-05
9.21764e-05
9.19828e-05
9.18056e-05
9.16433e-05
9.14943e-05
9.13569e-05
9.12298e-05
9.11117e-05
9.10019e-05
9.08997e-05
9.08044e-05
9.07157e-05
9.06332e-05
9.05563e-05
9.04847e-05
9.0418e-05
9.03559e-05
9.0298e-05
9.0244e-05
9.01938e-05
9.01473e-05
9.01039e-05
9.00639e-05
9.00287e-05
8.99971e-05
8.9969e-05
8.99435e-05
8.99238e-05
8.99114e-05
8.99015e-05
8.98989e-05
8.99014e-05
8.99111e-05
8.99316e-05
8.99614e-05
9.00009e-05
9.00516e-05
9.01149e-05
9.01924e-05
9.02849e-05
9.03946e-05
9.05222e-05
9.06695e-05
9.08068e-05
9.09272e-05
9.10571e-05
9.1192e-05
9.13347e-05
9.14817e-05
9.16373e-05
9.17953e-05
9.19627e-05
9.213e-05
9.23075e-05
9.2483e-05
9.26684e-05
9.28498e-05
9.30404e-05
9.32285e-05
9.34081e-05
9.36275e-05
9.37565e-05
9.40607e-05
9.39434e-05
9.48267e-05
9.2769e-05
9.85662e-05
7.66613e-05
0.00012779
0.000151616
0.000158954
0.000160578
0.000160762
0.000160417
0.000159926
0.000159347
0.000158787
0.000158255
0.000157745
0.000157278
0.000156854
0.000156462
0.000156099
0.000155767
0.000155466
0.000155191
0.000154938
0.000154704
0.000154487
0.000154288
0.000154104
0.000153936
0.000153781
0.000153637
0.000153504
0.000153379
0.000153263
0.000153154
0.000153052
0.000152958
0.00015287
0.000152788
0.000152711
0.00015264
0.000152574
0.000152512
0.000152454
0.000152401
0.000152351
0.000152304
0.000152261
0.000152223
0.000152189
0.000152159
0.00015213
0.000152108
0.000152094
0.000152083
0.000152078
0.000152081
0.000152091
0.000152111
0.000152142
0.000152183
0.000152235
0.000152301
0.000152381
0.000152476
0.00015259
0.000152721
0.000152873
0.000153015
0.000153138
0.000153271
0.000153408
0.000153555
0.000153703
0.000153863
0.000154021
0.000154191
0.000154356
0.000154537
0.000154707
0.000154896
0.000155068
0.000155262
0.000155439
0.000155611
0.000155837
0.00015593
0.000156287
0.000156005
0.000157214
0.000154549
0.00016103
0.000139412
0.000160089
0.000199023
0.00021482
0.00022068
0.000223366
0.000224599
0.000225184
0.000225346
0.000225331
0.000225201
0.000224988
0.000224753
0.000224514
0.000224266
0.000224016
0.000223777
0.000223554
0.000223346
0.000223147
0.000222958
0.000222779
0.000222612
0.000222457
0.000222314
0.000222182
0.000222058
0.000221942
0.000221832
0.000221729
0.000221633
0.000221542
0.000221457
0.000221378
0.000221304
0.000221236
0.000221172
0.000221112
0.000221057
0.000221005
0.000220957
0.000220912
0.00022087
0.000220831
0.000220797
0.000220766
0.00022074
0.000220715
0.000220695
0.000220684
0.000220676
0.000220673
0.000220678
0.000220689
0.000220711
0.000220743
0.000220785
0.000220838
0.000220904
0.000220984
0.000221079
0.000221191
0.000221321
0.000221471
0.000221611
0.00022173
0.000221861
0.000221994
0.000222137
0.000222279
0.000222435
0.000222584
0.000222752
0.000222905
0.000223082
0.000223238
0.000223424
0.000223578
0.000223768
0.000223927
0.000224088
0.000224311
0.000224372
0.000224762
0.000224391
0.000225726
0.000223131
0.000228784
0.000210948
0.000186713
0.000243017
0.000269848
0.000281824
0.000288353
0.000292147
0.00029455
0.000296021
0.000296998
0.000297625
0.000297994
0.000298223
0.000298362
0.000298419
0.000298419
0.000298389
0.000298345
0.00029829
0.000298223
0.000298145
0.000298062
0.000297981
0.000297902
0.000297827
0.000297756
0.000297687
0.00029762
0.000297555
0.000297491
0.00029743
0.000297372
0.000297318
0.000297267
0.000297219
0.000297175
0.000297134
0.000297095
0.00029706
0.000297026
0.000296995
0.000296966
0.000296939
0.000296914
0.000296893
0.000296875
0.00029686
0.000296846
0.000296835
0.000296833
0.000296834
0.000296839
0.000296852
0.00029687
0.000296898
0.000296935
0.000296982
0.00029704
0.00029711
0.000297192
0.00029729
0.000297403
0.000297534
0.000297683
0.000297823
0.000297939
0.000298067
0.000298196
0.000298337
0.000298473
0.000298626
0.000298767
0.000298932
0.000299073
0.00029925
0.00029939
0.000299576
0.000299712
0.000299902
0.000300043
0.000300201
0.000300416
0.000300464
0.000300867
0.000300506
0.000301765
0.000299759
0.000303859
0.000288776
0.000206554
0.00028236
0.000323355
0.000343767
0.00035586
0.000363526
0.000368782
0.000372378
0.000375011
0.000376938
0.000378331
0.000379396
0.000380226
0.000380854
0.000381327
0.000381702
0.000382008
0.000382256
0.00038245
0.0003826
0.000382717
0.000382812
0.000382893
0.000382963
0.000383021
0.00038307
0.000383109
0.000383139
0.000383162
0.000383181
0.000383196
0.000383208
0.00038322
0.000383231
0.000383241
0.00038325
0.000383259
0.000383268
0.000383276
0.000383284
0.000383291
0.000383298
0.000383305
0.000383313
0.000383323
0.000383334
0.000383345
0.000383357
0.000383376
0.000383398
0.000383422
0.000383453
0.000383487
0.000383531
0.000383582
0.000383643
0.000383712
0.000383794
0.000383885
0.000383993
0.000384112
0.00038425
0.000384402
0.000384546
0.000384663
0.000384792
0.000384919
0.000385062
0.000385193
0.000385348
0.000385481
0.000385649
0.000385779
0.00038596
0.000386086
0.000386277
0.000386398
0.000386596
0.00038672
0.000386891
0.000387088
0.000387157
0.000387547
0.000387304
0.000388319
0.000387206
0.000389665
0.00037541
0.000218235
0.000314996
0.000373885
0.000405533
0.000425304
0.000438493
0.000447942
0.000454754
0.000459959
0.000463951
0.000467009
0.000469457
0.00047145
0.000473053
0.000474351
0.000475436
0.000476364
0.000477156
0.000477827
0.000478394
0.00047888
0.000479306
0.000479686
0.000480027
0.000480332
0.000480604
0.000480845
0.00048106
0.000481252
0.000481425
0.000481582
0.000481727
0.000481861
0.000481986
0.000482103
0.000482213
0.000482315
0.000482412
0.000482502
0.000482586
0.000482665
0.00048274
0.00048281
0.000482877
0.000482942
0.000483006
0.000483067
0.000483126
0.000483188
0.000483252
0.000483315
0.000483383
0.000483451
0.000483527
0.000483608
0.000483698
0.000483794
0.0004839
0.000484014
0.000484143
0.000484281
0.000484437
0.000484604
0.000484761
0.000484884
0.000485022
0.000485152
0.000485303
0.000485435
0.000485599
0.000485728
0.000485908
0.00048603
0.000486225
0.000486343
0.00048655
0.000486662
0.000486879
0.000486992
0.000487199
0.000487367
0.000487502
0.000487853
0.000487823
0.000488521
0.000488339
0.000489587
0.000474622
0.000220043
0.000337972
0.000418935
0.000465147
0.000495147
0.000515866
0.000531159
0.000542559
0.000551504
0.000558562
0.00056414
0.000568715
0.000572524
0.000575672
0.000578295
0.000580535
0.000582481
0.000584175
0.000585641
0.000586911
0.000588025
0.000589017
0.00058991
0.000590719
0.000591451
0.000592113
0.00059271
0.00059325
0.000593739
0.000594186
0.000594597
0.000594978
0.000595331
0.000595662
0.00059597
0.00059626
0.000596531
0.000596785
0.000597023
0.000597247
0.000597456
0.000597654
0.000597838
0.000598014
0.000598181
0.000598341
0.000598492
0.000598637
0.00059878
0.00059892
0.000599056
0.000599193
0.000599326
0.000599463
0.000599602
0.000599747
0.000599894
0.00060005
0.000600209
0.000600383
0.00060056
0.000600757
0.000600957
0.000601146
0.000601288
0.000601449
0.000601594
0.000601767
0.000601911
0.000602099
0.000602236
0.000602443
0.000602568
0.000602794
0.000602916
0.000603154
0.000603274
0.000603527
0.000603649
0.000603915
0.000604062
0.000604329
0.00060459
0.000604842
0.000605286
0.000605846
0.000606605
0.000590158
0.000210356
0.000347434
0.000454797
0.000519462
0.000562757
0.000593428
0.000616561
0.000634213
0.000648335
0.000659702
0.000668878
0.000676532
0.000683002
0.000688443
0.000693056
0.000697048
0.000700554
0.000703638
0.000706342
0.000708717
0.000710824
0.000712716
0.00071443
0.000715992
0.000717413
0.000718707
0.000719883
0.000720955
0.000721933
0.000722833
0.000723663
0.000724435
0.000725153
0.000725825
0.000726454
0.000727044
0.000727597
0.000728116
0.000728603
0.00072906
0.000729489
0.000729894
0.000730273
0.000730632
0.000730972
0.000731296
0.000731603
0.000731894
0.000732175
0.000732447
0.000732708
0.000732964
0.00073321
0.000733455
0.000733695
0.000733939
0.000734177
0.000734424
0.000734666
0.000734923
0.000735176
0.00073545
0.00073572
0.000735971
0.000736157
0.000736364
0.000736547
0.000736767
0.000736945
0.000737181
0.000737347
0.000737607
0.000737758
0.000738043
0.000738189
0.00073849
0.000738639
0.000738964
0.000739117
0.00073948
0.000739648
0.000740075
0.000740292
0.000740877
0.000741188
0.000742256
0.000742956
0.000725526
0.000186423
0.000338894
0.000476393
0.000563924
0.000624181
0.00066773
0.000701115
0.000727034
0.000748069
0.000765252
0.000779344
0.000791248
0.000801425
0.000810096
0.000817539
0.000824045
0.000829807
0.000834915
0.000839435
0.000843443
0.000847028
0.000850267
0.000853217
0.000855914
0.000858381
0.000860638
0.0008627
0.00086459
0.000866324
0.000867925
0.000869407
0.000870788
0.000872076
0.000873283
0.000874414
0.000875476
0.000876473
0.00087741
0.000878289
0.000879117
0.000879895
0.000880628
0.000881317
0.00088197
0.000882586
0.000883172
0.000883727
0.000884255
0.000884758
0.000885244
0.000885707
0.000886157
0.000886587
0.000887009
0.000887416
0.000887822
0.000888215
0.000888612
0.000888997
0.000889395
0.000889781
0.000890189
0.000890585
0.000890946
0.000891212
0.000891504
0.000891761
0.000892065
0.000892311
0.000892634
0.000892865
0.000893215
0.000893427
0.000893811
0.000894015
0.000894427
0.000894636
0.000895083
0.000895302
0.00089581
0.000896047
0.000896667
0.000896946
0.0008978
0.000898192
0.000899546
0.000900558
0.000882752
0.000146381
0.000307467
0.00047712
0.000592255
0.000673794
0.000733753
0.000780319
0.000816951
0.000847007
0.000871832
0.000892435
0.00091001
0.000925168
0.000938209
0.000949513
0.000959473
0.000968349
0.000976271
0.00098333
0.000989636
0.000995311
0.00100047
0.00100518
0.00100951
0.00101348
0.00101713
0.00102048
0.00102356
0.0010264
0.00102903
0.00103147
0.00103375
0.00103588
0.00103788
0.00103976
0.00104153
0.00104318
0.00104474
0.00104621
0.0010476
0.0010489
0.00105013
0.00105128
0.00105238
0.00105341
0.0010544
0.00105533
0.00105622
0.00105706
0.00105787
0.00105864
0.00105939
0.0010601
0.0010608
0.00106147
0.00106212
0.00106276
0.00106339
0.001064
0.00106462
0.00106522
0.00106584
0.00106644
0.00106698
0.00106738
0.00106781
0.00106819
0.00106863
0.001069
0.00106946
0.0010698
0.00107029
0.00107061
0.00107115
0.00107146
0.00107204
0.00107235
0.00107298
0.00107331
0.00107402
0.00107438
0.00107523
0.00107566
0.00107678
0.00107738
0.00107897
0.00108041
0.00106227
9.23824e-05
0.000248656
0.000449217
0.000596119
0.000703877
0.000784459
0.000847759
0.000898084
0.000939733
0.000974419
0.00100348
0.00102845
0.00105014
0.00106893
0.00108535
0.00109991
0.00111295
0.00112464
0.00113512
0.00114454
0.00115306
0.00116084
0.00116797
0.00117454
0.00118059
0.00118616
0.0011913
0.00119604
0.00120043
0.0012045
0.00120829
0.00121184
0.00121516
0.00121829
0.00122122
0.00122398
0.00122658
0.00122903
0.00123134
0.00123352
0.00123557
0.00123751
0.00123934
0.00124107
0.00124271
0.00124427
0.00124575
0.00124716
0.0012485
0.00124978
0.001251
0.00125218
0.00125331
0.00125441
0.00125545
0.00125648
0.00125747
0.00125845
0.00125939
0.00126034
0.00126126
0.0012622
0.0012631
0.00126391
0.0012645
0.00126514
0.00126571
0.00126634
0.00126689
0.00126755
0.00126807
0.00126876
0.00126925
0.00126999
0.00127046
0.00127127
0.00127173
0.00127262
0.0012731
0.00127408
0.00127461
0.00127576
0.00127638
0.00127781
0.00127866
0.00128053
0.00128236
0.00126393
3.52142e-05
0.0001603
0.000381862
0.000565177
0.000704109
0.000810229
0.000894532
0.000962173
0.00101856
0.00106582
0.0011057
0.0011402
0.0011703
0.00119654
0.00121959
0.00124014
0.00125862
0.00127526
0.00129024
0.00130376
0.00131604
0.00132729
0.00133764
0.0013472
0.00135603
0.00136418
0.00137171
0.00137869
0.00138516
0.00139118
0.00139681
0.00140208
0.00140702
0.00141168
0.00141605
0.00142018
0.00142407
0.00142774
0.0014312
0.00143447
0.00143756
0.00144048
0.00144324
0.00144585
0.00144833
0.00145068
0.00145292
0.00145505
0.00145707
0.00145902
0.00146087
0.00146265
0.00146436
0.00146601
0.00146759
0.00146913
0.00147061
0.00147208
0.00147348
0.00147489
0.00147625
0.00147763
0.00147897
0.00148013
0.001481
0.00148192
0.00148275
0.00148365
0.00148445
0.00148537
0.00148613
0.00148708
0.00148782
0.00148881
0.00148952
0.00149059
0.00149128
0.00149246
0.00149314
0.00149445
0.0014952
0.00149667
0.00149753
0.0014993
0.00150041
0.00150259
0.00150472
0.00148637
3.24389e-06
4.76371e-05
0.000262153
0.000485463
0.000661568
0.000798285
0.000908542
0.000997857
0.00107281
0.00113595
0.00118957
0.00123619
0.00127702
0.00131277
0.00134434
0.00137259
0.00139807
0.00142108
0.00144187
0.0014607
0.00147787
0.00149364
0.00150819
0.00152164
0.00153409
0.00154562
0.0015563
0.0015662
0.00157542
0.00158401
0.00159206
0.0015996
0.00160669
0.00161337
0.00161967
0.00162561
0.00163121
0.00163651
0.0016415
0.00164623
0.00165069
0.00165492
0.00165892
0.00166271
0.00166631
0.00166973
0.00167298
0.00167609
0.00167904
0.00168186
0.00168456
0.00168715
0.00168963
0.00169203
0.00169432
0.00169656
0.00169871
0.00170082
0.00170285
0.00170486
0.00170681
0.00170877
0.00171067
0.00171231
0.00171354
0.00171481
0.00171598
0.00171722
0.00171834
0.00171958
0.00172066
0.00172191
0.00172296
0.00172425
0.00172527
0.00172662
0.00172762
0.00172908
0.00173007
0.00173167
0.00173269
0.0017345
0.00173562
0.0017377
0.00173915
0.00174153
0.00174387
0.00172625
1.18724e-07
2.01071e-06
8.53387e-05
0.000339722
0.000558255
0.000732043
0.000873961
0.000989841
0.00108794
0.00117095
0.00124187
0.00130382
0.00135821
0.00140601
0.0014484
0.00148647
0.00152088
0.00155202
0.00158022
0.00160584
0.00162928
0.00165086
0.00167079
0.00168926
0.00170638
0.00172225
0.00173698
0.00175067
0.00176343
0.00177536
0.00178654
0.00179704
0.00180692
0.00181623
0.00182502
0.00183332
0.00184115
0.00184856
0.00185555
0.00186218
0.00186844
0.00187438
0.00188
0.00188534
0.0018904
0.00189522
0.0018998
0.00190417
0.00190834
0.00191232
0.00191612
0.00191978
0.00192327
0.00192664
0.00192987
0.001933
0.00193601
0.00193896
0.00194179
0.00194459
0.00194729
0.00194999
0.0019526
0.00195482
0.0019565
0.0019582
0.00195979
0.00196143
0.00196295
0.00196456
0.00196602
0.00196762
0.00196903
0.00197064
0.00197202
0.00197367
0.00197503
0.00197675
0.00197811
0.00197995
0.00198134
0.00198335
0.00198486
0.00198708
0.00198891
0.00199137
0.00199386
0.00197772
2.3401e-08
5.86588e-08
1.60748e-06
0.00010099
0.00037154
0.000588813
0.000769375
0.000918188
0.00104483
0.00115222
0.00124463
0.00132583
0.00139725
0.00146019
0.00151624
0.00156674
0.00161247
0.00165389
0.00169147
0.00172572
0.00175713
0.0017861
0.00181291
0.00183777
0.00186083
0.00188224
0.00190214
0.00192067
0.00193796
0.00195415
0.00196934
0.00198363
0.00199709
0.00200979
0.00202177
0.0020331
0.00204379
0.00205391
0.00206348
0.00207254
0.00208112
0.00208925
0.00209696
0.00210428
0.00211123
0.00211785
0.00212415
0.00213015
0.00213588
0.00214135
0.00214658
0.00215159
0.00215639
0.00216101
0.00216543
0.00216971
0.00217382
0.00217782
0.00218167
0.00218544
0.00218908
0.00219268
0.00219617
0.00219909
0.00220131
0.00220352
0.00220562
0.00220772
0.0022097
0.00221173
0.00221362
0.00221559
0.00221741
0.00221936
0.00222112
0.00222307
0.0022248
0.00222678
0.00222851
0.00223054
0.00223231
0.00223445
0.00223632
0.00223861
0.00224073
0.00224318
0.00224577
0.00223183
1.60828e-08
1.81737e-08
3.45192e-08
8.19487e-07
7.39622e-05
0.000331423
0.0005668
0.000755001
0.000917355
0.00105501
0.00117431
0.00127933
0.00137177
0.00145347
0.00152666
0.00159283
0.00165279
0.00170714
0.00175653
0.00180165
0.00184315
0.00188149
0.00191701
0.00194995
0.00198053
0.00200894
0.00203538
0.00206003
0.00208307
0.00210468
0.00212498
0.00214409
0.00216211
0.00217911
0.00219516
0.00221034
0.00222468
0.00223825
0.00225109
0.00226325
0.00227477
0.00228569
0.00229606
0.00230591
0.00231526
0.00232418
0.00233265
0.00234074
0.00234845
0.00235583
0.00236286
0.00236961
0.00237606
0.00238225
0.00238818
0.00239391
0.0023994
0.00240472
0.00240983
0.00241481
0.0024196
0.0024243
0.00242884
0.00243259
0.00243546
0.00243826
0.00244093
0.00244356
0.00244605
0.00244854
0.0024509
0.00245328
0.00245552
0.00245781
0.00245997
0.00246219
0.00246429
0.00246649
0.00246855
0.00247074
0.00247282
0.00247504
0.00247719
0.00247947
0.00248179
0.00248411
0.00248677
0.00247553
1.52754e-08
1.53962e-08
1.61187e-08
2.27533e-08
2.04944e-07
2.02387e-05
0.000197657
0.000458631
0.000671378
0.000844932
0.000997686
0.00113308
0.0012518
0.00135701
0.00145161
0.00153728
0.00161491
0.00168528
0.00174935
0.0018081
0.00186231
0.00191247
0.00195897
0.0020021
0.00204213
0.00207934
0.002114
0.00214637
0.00217667
0.00220513
0.00223189
0.00225711
0.00228089
0.00230334
0.00232454
0.00234458
0.00236353
0.00238146
0.00239842
0.0024145
0.00242973
0.00244419
0.00245791
0.00247096
0.00248335
0.00249516
0.0025064
0.00251713
0.00252735
0.00253713
0.00254645
0.00255538
0.00256391
0.00257209
0.00257992
0.00258745
0.00259466
0.00260162
0.00260829
0.00261474
0.00262094
0.00262696
0.00263277
0.0026375
0.00264111
0.0026446
0.00264791
0.00265114
0.0026542
0.0026572
0.00266005
0.00266285
0.00266553
0.00266816
0.00267069
0.00267319
0.00267561
0.002678
0.00268034
0.00268265
0.00268495
0.0026872
0.00268952
0.00269172
0.00269415
0.00269625
0.00269891
0.00269009
1.52061e-08
1.51164e-08
1.50852e-08
1.5257e-08
1.72482e-08
4.22671e-08
8.81336e-07
4.17738e-05
0.000226051
0.000458185
0.000669206
0.000845612
0.000995742
0.00112977
0.00125188
0.00136263
0.00146252
0.00155289
0.00163538
0.00171122
0.00178131
0.00184625
0.00190643
0.00196222
0.00201398
0.00206213
0.00210704
0.00214906
0.0021885
0.0022256
0.00226051
0.00229344
0.00232449
0.0023538
0.00238148
0.00240765
0.00243237
0.00245578
0.00247792
0.00249892
0.00251881
0.00253771
0.00255565
0.00257272
0.00258894
0.0026044
0.00261912
0.00263317
0.00264656
0.00265935
0.00267156
0.00268323
0.00269437
0.00270503
0.00271521
0.00272497
0.0027343
0.00274324
0.00275179
0.00276001
0.00276786
0.00277542
0.00278266
0.00278849
0.00279292
0.00279714
0.00280114
0.00280497
0.0028086
0.00281208
0.00281538
0.00281855
0.00282157
0.00282447
0.00282724
0.00282991
0.00283246
0.00283492
0.00283729
0.00283956
0.0028418
0.00284389
0.00284605
0.00284794
0.00285013
0.00285169
0.00285416
0.00285037
1.52124e-08
1.51382e-08
1.50985e-08
1.5017e-08
1.50382e-08
1.54175e-08
1.83397e-08
4.49163e-08
5.93562e-07
1.78446e-05
0.000135566
0.000324008
0.000520457
0.000708026
0.000874536
0.00101889
0.00114571
0.00126013
0.00136546
0.00146329
0.00155407
0.00163805
0.00171559
0.00178726
0.00185368
0.00191551
0.00197329
0.00202746
0.00207833
0.00212623
0.00217136
0.00221392
0.00225406
0.00229194
0.00232768
0.00236145
0.00239336
0.00242356
0.00245214
0.00247925
0.00250496
0.00252939
0.00255259
0.00257469
0.00259572
0.00261577
0.00263487
0.0026531
0.00267047
0.00268706
0.00270288
0.002718
0.00273241
0.00274619
0.00275933
0.00277186
0.0027838
0.00279519
0.00280602
0.00281636
0.00282619
0.00283555
0.00284444
0.00285149
0.00285681
0.00286181
0.00286652
0.00287095
0.00287511
0.00287903
0.0028827
0.00288617
0.0028894
0.00289245
0.0028953
0.00289799
0.00290047
0.00290284
0.00290501
0.0029071
0.00290897
0.00291083
0.0029124
0.0029141
0.00291536
0.00291698
0.00291787
0.00291961
1.5223e-08
1.51741e-08
1.51447e-08
1.50915e-08
1.506e-08
1.50171e-08
1.5047e-08
1.53371e-08
1.69447e-08
2.58335e-08
9.34385e-08
1.10797e-06
1.63451e-05
0.000104254
0.000243932
0.000396229
0.000555831
0.000713686
0.000862136
0.000997394
0.00111889
0.00122802
0.00132687
0.00141752
0.00150159
0.00158028
0.00165427
0.00172405
0.00178984
0.00185186
0.00191025
0.00196521
0.00201691
0.0020656
0.00211146
0.00215474
0.00219561
0.00223428
0.0022709
0.00230565
0.00233863
0.00237
0.00239984
0.00242825
0.0024553
0.00248108
0.00250564
0.00252908
0.00255142
0.00257273
0.00259305
0.00261243
0.00263089
0.0026485
0.00266526
0.00268124
0.00269642
0.00271086
0.00272456
0.00273756
0.00274986
0.00276149
0.00277245
0.00278107
0.00278752
0.00279354
0.00279916
0.00280439
0.00280925
0.00281377
0.00281796
0.00282184
0.00282542
0.00282873
0.00283176
0.00283455
0.00283709
0.00283942
0.00284151
0.00284342
0.00284511
0.00284664
0.00284798
0.00284918
0.00285021
0.0028511
0.00285189
0.00285798
1.52301e-08
1.5197e-08
1.51783e-08
1.51422e-08
1.51244e-08
1.5089e-08
1.50725e-08
1.50423e-08
1.50527e-08
1.51038e-08
1.56489e-08
1.67911e-08
2.44839e-08
4.64188e-08
2.32902e-07
1.55109e-06
1.28703e-05
6.31576e-05
0.000153546
0.000257056
0.00036795
0.000485189
0.000605724
0.000726002
0.000842868
0.000954166
0.00105858
0.00115565
0.00124541
0.00132831
0.00140492
0.00147594
0.00154202
0.00160379
0.00166175
0.00171638
0.00176802
0.00181699
0.0018635
0.00190777
0.00194993
0.00199014
0.00202847
0.00206505
0.00209993
0.00213321
0.00216493
0.00219519
0.002224
0.00225146
0.0022776
0.00230248
0.00232614
0.00234863
0.00236998
0.00239025
0.00240945
0.00242764
0.00244483
0.00246104
0.00247631
0.00249062
0.00250402
0.00251444
0.00252217
0.00252932
0.00253593
0.00254201
0.0025476
0.00255272
0.00255739
0.00256163
0.00256548
0.00256894
0.00257204
0.00257478
0.00257721
0.00257932
0.00258115
0.00258268
0.00258399
0.002585
0.00258586
0.00258641
0.00258688
0.00258701
0.00258747
0.00259858
1.52347e-08
1.52149e-08
1.5198e-08
1.51786e-08
1.51623e-08
1.51443e-08
1.51287e-08
1.51121e-08
1.50959e-08
1.50818e-08
1.50719e-08
1.50789e-08
1.51426e-08
1.527e-08
1.58443e-08
1.68581e-08
2.03755e-08
2.83022e-08
5.56371e-08
1.52441e-07
6.00626e-07
2.73094e-06
1.15115e-05
3.73341e-05
8.53445e-05
0.000146925
0.00021366
0.000283462
0.000356211
0.000431678
0.000509135
0.000587705
0.0006664
0.000744379
0.000820857
0.000895273
0.000967144
0.00103619
0.00110219
0.00116508
0.00122481
0.00128144
0.00133503
0.00138573
0.00143362
0.00147888
0.00152162
0.00156202
0.00160017
0.00163623
0.0016703
0.00170251
0.00173294
0.0017617
0.00178884
0.00181446
0.0018386
0.00186133
0.00188268
0.0019027
0.00192139
0.0019388
0.00195492
0.00196732
0.00197643
0.00198479
0.00199241
0.00199935
0.00200562
0.00201128
0.00201634
0.00202084
0.00202479
0.00202826
0.00203123
0.00203377
0.00203585
0.00203756
0.00203886
0.00203985
0.00204046
0.00204082
0.00204078
0.00204059
0.0020402
0.00203913
0.00203916
0.00205631
1.52385e-08
1.52267e-08
1.52189e-08
1.52061e-08
1.51989e-08
1.5187e-08
1.51802e-08
1.51691e-08
1.51628e-08
1.51524e-08
1.51456e-08
1.51358e-08
1.51304e-08
1.51242e-08
1.51255e-08
1.51313e-08
1.51551e-08
1.51994e-08
1.53175e-08
1.55284e-08
1.59905e-08
1.69278e-08
1.86008e-08
2.22839e-08
2.87265e-08
4.35067e-08
7.43622e-08
1.49981e-07
3.3324e-07
8.07086e-07
1.98027e-06
4.79383e-06
1.08353e-05
2.23446e-05
4.08547e-05
6.63937e-05
9.69374e-05
0.000130453
0.000165209
0.000200656
0.000236358
0.000272433
0.000308674
0.000345223
0.000381804
0.000418523
0.000455036
0.000491452
0.000527396
0.000563002
0.000597884
0.000632214
0.000665604
0.000698262
0.000729802
0.000760463
0.000789843
0.00081799
0.000844709
0.000870061
0.000893858
0.000916157
0.000936791
0.000952658
0.00096425
0.000974858
0.000984432
0.000993101
0.00100082
0.00100772
0.00101375
0.00101903
0.00102354
0.00102739
0.00103054
0.0010331
0.00103504
0.00103648
0.00103738
0.00103785
0.00103777
0.00103745
0.00103668
0.00103585
0.00103422
0.00103303
0.00103064
0.00105065
1.5241e-08
1.5238e-08
1.52334e-08
1.52302e-08
1.52259e-08
1.52229e-08
1.52188e-08
1.52161e-08
1.52122e-08
1.52097e-08
1.5206e-08
1.52036e-08
1.52002e-08
1.51975e-08
1.51941e-08
1.51918e-08
1.51889e-08
1.51873e-08
1.51858e-08
1.51861e-08
1.51877e-08
1.51918e-08
1.52006e-08
1.5219e-08
1.52466e-08
1.53047e-08