/*--------------------------------*- C++ -*----------------------------------*\
| =========                 |                                                 |
| \\      /  F ield         | OpenFOAM: The Open Source CFD Toolbox           |
|  \\    /   O peration     | Version:  v1912                                 |
|   \\  /    A nd           | Website:  www.openfoam.com                      |
|    \\/     M anipulation  |                                                 |
\*---------------------------------------------------------------------------*/
FoamFile
{
    version     2.0;
    format      ascii;
    class       volScalarField;
    location    "10000";
    object      nut;
}
// * * * * * * * * * * * * * * * * * * * * * * * * * * * * * * * * * * * * * //

dimensions      [0 2 -1 0 0 0 0];


internalField   nonuniform List<scalar> 
20540
(
9.13043e-07
0.000146506
9.27711e-07
0.000146729
9.64759e-07
0.000147242
1.03484e-06
0.000148089
1.15222e-06
0.000149278
1.33446e-06
0.000150739
1.59903e-06
0.000152264
1.95228e-06
0.000153411
2.36645e-06
0.000153425
2.74674e-06
0.000151374
2.91537e-06
0.000145798
2.6638e-06
0.000134664
1.91788e-06
0.00011524
9.55321e-07
8.44375e-05
2.85169e-07
4.22395e-05
5.82945e-08
6.53646e-06
2.18247e-08
3.67137e-07
1.6745e-08
3.5945e-08
1.56322e-08
1.79076e-08
1.52704e-08
1.55156e-08
1.52469e-08
1.53347e-08
1.52414e-08
1.52508e-08
1.52452e-08
1.52451e-08
1.52455e-08
1.52452e-08
1.52453e-08
1.5245e-08
1.5245e-08
1.52447e-08
1.52447e-08
1.52443e-08
1.52443e-08
1.52438e-08
1.52437e-08
1.52432e-08
1.52431e-08
1.52423e-08
1.52424e-08
1.52415e-08
1.52417e-08
1.52409e-08
1.52417e-08
1.52409e-08
1.52424e-08
1.52415e-08
1.52431e-08
1.52423e-08
1.52437e-08
1.52432e-08
1.52442e-08
1.52438e-08
1.52446e-08
1.52442e-08
1.5245e-08
1.52446e-08
1.52454e-08
1.52449e-08
1.52458e-08
1.52447e-08
1.52447e-08
1.52451e-08
1.52405e-08
1.52486e-08
1.52428e-08
1.52861e-08
1.5244e-08
1.54121e-08
1.53871e-08
1.63803e-08
1.56587e-08
2.23681e-08
1.88444e-08
1.1386e-07
3.01798e-08
1.8986e-06
1.25332e-07
2.11968e-05
5.22961e-07
6.37725e-05
1.33835e-06
9.99556e-05
2.2345e-06
0.000124668
2.78554e-06
0.000139952
2.87225e-06
0.000148535
2.62749e-06
0.000152639
2.23978e-06
0.000153919
1.85095e-06
0.000153538
1.52884e-06
0.000152274
1.28967e-06
0.00015077
1.12474e-06
0.000149375
1.01794e-06
0.000148254
9.53708e-07
0.000147458
9.19481e-07
0.000146976
9.05821e-07
0.000146765
7.31669e-09
4.88434e-09
4.40224e-09
4.16786e-09
4.04199e-09
3.97162e-09
3.93135e-09
3.909e-09
3.89855e-09
3.89684e-09
3.89971e-09
3.90518e-09
3.92063e-09
7.79999e-09
7.65393e-09
7.51625e-09
7.38858e-09
7.27252e-09
7.16696e-09
7.06464e-09
6.96915e-09
6.89326e-09
6.81824e-09
6.74094e-09
6.68371e-09
6.62442e-09
6.56802e-09
6.51743e-09
6.46795e-09
6.42424e-09
6.38065e-09
6.34263e-09
6.3042e-09
6.27098e-09
6.2371e-09
6.20799e-09
6.17815e-09
6.15267e-09
6.12653e-09
6.10044e-09
6.06476e-09
5.98995e-09
4.33012e-09
4.29319e-09
4.35454e-09
4.33688e-09
4.33656e-09
4.37934e-09
4.33699e-09
4.33394e-09
4.40641e-09
4.3526e-09
4.34389e-09
4.41531e-09
4.35155e-09
4.33442e-09
4.40452e-09
4.33229e-09
4.30436e-09
4.36434e-09
4.28669e-09
4.21962e-09
4.21642e-09
4.24385e-09
4.32314e-09
4.26085e-09
4.23433e-09
4.35283e-09
4.24304e-09
4.21445e-09
4.33702e-09
4.23963e-09
4.21185e-09
4.3264e-09
4.21612e-09
4.14531e-09
4.20885e-09
4.17436e-09
4.15551e-09
4.15779e-09
4.16876e-09
4.17008e-09
4.17164e-09
4.17691e-09
4.242e-09
4.4189e-09
4.42419e-09
4.75149e-09
7.84666e-07
5.54419e-07
4.93294e-07
4.62031e-07
4.43393e-07
4.31338e-07
4.22942e-07
4.16758e-07
4.12142e-07
4.08664e-07
4.05923e-07
4.03733e-07
4.02516e-07
5.50862e-07
5.43963e-07
5.37312e-07
5.31241e-07
5.25764e-07
5.20797e-07
5.16011e-07
5.1157e-07
5.08006e-07
5.04509e-07
5.00959e-07
4.98268e-07
4.95519e-07
4.9292e-07
4.90575e-07
4.88303e-07
4.86278e-07
4.84283e-07
4.82523e-07
4.80769e-07
4.79232e-07
4.77689e-07
4.76344e-07
4.74987e-07
4.7381e-07
4.72623e-07
4.71451e-07
4.69942e-07
4.67257e-07
4.03059e-07
4.00693e-07
4.03627e-07
4.02612e-07
4.0247e-07
4.04519e-07
4.0237e-07
4.0222e-07
4.05862e-07
4.03342e-07
4.03064e-07
4.06775e-07
4.03975e-07
4.03492e-07
4.07412e-07
4.04452e-07
4.03664e-07
4.07448e-07
4.04488e-07
4.02155e-07
4.03155e-07
4.05648e-07
4.11305e-07
4.09249e-07
4.0902e-07
4.1672e-07
4.12342e-07
4.12139e-07
4.20389e-07
4.16815e-07
4.16707e-07
4.2486e-07
4.2054e-07
4.17791e-07
4.22627e-07
4.22667e-07
4.24438e-07
4.25209e-07
4.28479e-07
4.2979e-07
4.33177e-07
4.3602e-07
4.4286e-07
4.64001e-07
4.60496e-07
5.55879e-07
1.02712e-05
7.76253e-06
6.66407e-06
6.05475e-06
5.66962e-06
5.40807e-06
5.21843e-06
5.07262e-06
4.95875e-06
4.86763e-06
4.79257e-06
4.7301e-06
4.67902e-06
5.12242e-06
5.07067e-06
5.0213e-06
4.97661e-06
4.93652e-06
4.90032e-06
4.86651e-06
4.83553e-06
4.80902e-06
4.78392e-06
4.75985e-06
4.73979e-06
4.7203e-06
4.70224e-06
4.68561e-06
4.66998e-06
4.65565e-06
4.64206e-06
4.62965e-06
4.6178e-06
4.60703e-06
4.59669e-06
4.58731e-06
4.57827e-06
4.57011e-06
4.56224e-06
4.55465e-06
4.54553e-06
4.53276e-06
4.31027e-06
4.29748e-06
4.30561e-06
4.30027e-06
4.29813e-06
4.30426e-06
4.296e-06
4.29539e-06
4.30866e-06
4.30108e-06
4.3018e-06
4.31681e-06
4.31064e-06
4.31323e-06
4.33174e-06
4.32844e-06
4.33271e-06
4.35396e-06
4.3556e-06
4.36122e-06
4.3792e-06
4.40151e-06
4.43403e-06
4.44195e-06
4.45514e-06
4.49552e-06
4.49977e-06
4.51549e-06
4.55831e-06
4.56766e-06
4.58665e-06
4.63198e-06
4.64258e-06
4.65775e-06
4.69549e-06
4.72057e-06
4.7532e-06
4.78171e-06
4.82204e-06
4.85335e-06
4.89748e-06
4.93605e-06
4.99628e-06
5.06792e-06
5.1588e-06
4.97214e-06
3.5945e-05
3.5087e-05
3.3186e-05
3.15168e-05
3.02399e-05
2.92614e-05
2.84917e-05
2.78596e-05
2.73419e-05
2.69088e-05
2.65391e-05
2.62231e-05
2.59505e-05
2.59834e-05
2.57667e-05
2.55721e-05
2.53986e-05
2.52432e-05
2.51029e-05
2.4975e-05
2.48585e-05
2.47533e-05
2.46571e-05
2.45686e-05
2.44886e-05
2.44146e-05
2.43462e-05
2.4283e-05
2.42242e-05
2.41699e-05
2.41192e-05
2.40723e-05
2.40285e-05
2.3988e-05
2.39501e-05
2.3915e-05
2.38821e-05
2.38517e-05
2.38233e-05
2.37967e-05
2.37708e-05
2.37447e-05
2.35994e-05
2.3575e-05
2.35656e-05
2.35506e-05
2.35391e-05
2.35351e-05
2.35246e-05
2.35215e-05
2.353e-05
2.35288e-05
2.35362e-05
2.35568e-05
2.35688e-05
2.35913e-05
2.3629e-05
2.36597e-05
2.37022e-05
2.37625e-05
2.38196e-05
2.38882e-05
2.39748e-05
2.40597e-05
2.41423e-05
2.42136e-05
2.42911e-05
2.43893e-05
2.44683e-05
2.45582e-05
2.46673e-05
2.47599e-05
2.48604e-05
2.49804e-05
2.50822e-05
2.51886e-05
2.53114e-05
2.54271e-05
2.55522e-05
2.56694e-05
2.58073e-05
2.59158e-05
2.6071e-05
2.61342e-05
2.64064e-05
2.59312e-05
2.77675e-05
2.0333e-05
6.87954e-05
7.56812e-05
7.64173e-05
7.54139e-05
7.42715e-05
7.32314e-05
7.23269e-05
7.15241e-05
7.0836e-05
7.02351e-05
6.9704e-05
6.924e-05
6.88312e-05
6.84769e-05
6.81473e-05
6.78528e-05
6.75894e-05
6.73517e-05
6.71352e-05
6.69373e-05
6.67562e-05
6.65908e-05
6.64397e-05
6.63015e-05
6.61745e-05
6.60574e-05
6.5949e-05
6.58484e-05
6.5755e-05
6.56681e-05
6.55873e-05
6.55122e-05
6.54424e-05
6.53776e-05
6.53172e-05
6.5261e-05
6.52086e-05
6.51599e-05
6.51144e-05
6.50722e-05
6.50329e-05
6.49968e-05
6.49568e-05
6.49256e-05
6.48997e-05
6.48763e-05
6.48563e-05
6.48409e-05
6.48286e-05
6.48214e-05
6.48213e-05
6.48245e-05
6.4835e-05
6.48545e-05
6.48797e-05
6.49145e-05
6.49608e-05
6.50157e-05
6.50831e-05
6.51656e-05
6.52611e-05
6.53714e-05
6.5501e-05
6.56229e-05
6.57307e-05
6.58438e-05
6.59605e-05
6.60877e-05
6.6215e-05
6.63491e-05
6.64897e-05
6.66346e-05
6.67791e-05
6.69357e-05
6.70878e-05
6.72463e-05
6.74046e-05
6.75691e-05
6.77305e-05
6.78885e-05
6.80681e-05
6.81857e-05
6.84246e-05
6.836e-05
6.89873e-05
6.74406e-05
7.17961e-05
5.41728e-05
0.000101933
0.000119956
0.000126135
0.000127452
0.000127538
0.000127197
0.000126716
0.000126168
0.000125645
0.000125145
0.000124672
0.000124243
0.000123853
0.000123452
0.000123118
0.000122817
0.000122545
0.000122296
0.000122066
0.000121854
0.000121658
0.000121479
0.000121314
0.000121163
0.000121023
0.000120893
0.000120773
0.000120661
0.000120556
0.000120459
0.000120368
0.000120284
0.000120205
0.000120132
0.000120064
0.000120001
0.000119942
0.000119887
0.000119836
0.000119788
0.000119744
0.000119704
0.000119685
0.000119651
0.00011962
0.000119594
0.000119571
0.000119552
0.000119538
0.000119529
0.000119526
0.00011953
0.000119541
0.00011956
0.000119589
0.000119627
0.000119676
0.000119737
0.000119811
0.0001199
0.000120006
0.000120127
0.000120268
0.000120399
0.000120513
0.000120636
0.000120762
0.000120897
0.000121034
0.000121178
0.000121323
0.00012148
0.00012163
0.000121795
0.000121951
0.000122121
0.000122276
0.000122451
0.000122607
0.000122767
0.000122953
0.000123045
0.000123332
0.000123124
0.000124059
0.000121864
0.00012721
0.000107876
0.000131975
0.000163033
0.000176806
0.000181893
0.000184205
0.00018528
0.000185757
0.000185873
0.000185838
0.000185697
0.00018549
0.00018527
0.000185046
0.000184787
0.000184555
0.000184337
0.000184135
0.000183944
0.000183763
0.00018359
0.000183428
0.000183277
0.000183138
0.00018301
0.00018289
0.000182778
0.000182673
0.000182574
0.000182481
0.000182393
0.000182312
0.000182236
0.000182166
0.0001821
0.000182039
0.000181982
0.000181929
0.00018188
0.000181834
0.000181791
0.000181751
0.000181714
0.000181692
0.000181662
0.000181635
0.000181612
0.000181591
0.000181575
0.000181564
0.000181557
0.000181556
0.000181562
0.000181574
0.000181595
0.000181624
0.000181663
0.000181712
0.000181774
0.000181847
0.000181936
0.000182039
0.000182159
0.000182296
0.000182425
0.000182535
0.000182656
0.000182777
0.000182908
0.000183039
0.000183179
0.000183315
0.000183468
0.000183606
0.000183766
0.000183908
0.000184074
0.000184211
0.000184382
0.000184518
0.000184669
0.000184846
0.00018491
0.000185224
0.000184935
0.000185999
0.000183814
0.000188613
0.000172388
0.000157247
0.000203017
0.00022654
0.000236967
0.000242634
0.00024596
0.000248029
0.000249296
0.000250137
0.000250662
0.000250971
0.000251166
0.000251278
0.000251304
0.000251294
0.000251264
0.000251223
0.000251171
0.000251107
0.000251035
0.000250961
0.000250888
0.000250818
0.000250752
0.000250688
0.000250626
0.000250565
0.000250506
0.000250449
0.000250395
0.000250344
0.000250296
0.000250252
0.00025021
0.000250172
0.000250136
0.000250102
0.000250071
0.000250042
0.000250014
0.000249989
0.000249966
0.00024995
0.000249932
0.000249916
0.000249903
0.000249893
0.000249886
0.000249883
0.000249884
0.00024989
0.000249902
0.00024992
0.000249946
0.00024998
0.000250022
0.000250075
0.000250139
0.000250213
0.000250302
0.000250405
0.000250522
0.000250656
0.000250782
0.000250887
0.000251004
0.000251119
0.000251245
0.000251368
0.000251504
0.000251629
0.000251777
0.000251902
0.000252058
0.000252183
0.000252346
0.000252464
0.000252632
0.000252748
0.000252894
0.00025306
0.000253112
0.000253436
0.000253152
0.000254169
0.000252473
0.000256
0.000242484
0.000176518
0.000238749
0.000274531
0.000292227
0.000302678
0.000309351
0.000313874
0.000316975
0.000319249
0.000320893
0.000322089
0.00032301
0.000323723
0.000324249
0.00032465
0.000324972
0.000325237
0.000325449
0.000325613
0.000325739
0.00032584
0.000325923
0.000325993
0.000326054
0.000326103
0.000326144
0.000326176
0.0003262
0.000326219
0.000326235
0.000326248
0.00032626
0.00032627
0.00032628
0.00032629
0.000326299
0.000326307
0.000326315
0.000326322
0.000326329
0.000326335
0.000326341
0.00032635
0.000326358
0.000326367
0.000326377
0.000326389
0.000326402
0.000326418
0.000326436
0.00032646
0.000326487
0.000326519
0.000326559
0.000326605
0.000326658
0.00032672
0.000326793
0.000326874
0.00032697
0.000327077
0.000327199
0.000327334
0.000327461
0.000327564
0.00032768
0.000327792
0.000327917
0.000328035
0.00032817
0.000328286
0.000328434
0.000328547
0.000328704
0.000328815
0.000328981
0.000329083
0.000329256
0.000329356
0.000329511
0.000329661
0.000329729
0.000330045
0.000329857
0.000330692
0.000329743
0.00033191
0.000319395
0.000188543
0.000268481
0.00031963
0.000346958
0.000363974
0.000375391
0.000383495
0.000389351
0.000393828
0.000397236
0.00039986
0.00040197
0.000403681
0.000405042
0.000406149
0.000407083
0.000407883
0.000408562
0.000409134
0.000409618
0.000410036
0.000410404
0.000410733
0.000411027
0.000411289
0.000411521
0.000411726
0.000411909
0.000412073
0.000412221
0.000412357
0.000412483
0.0004126
0.000412709
0.000412811
0.000412906
0.000412995
0.000413078
0.000413156
0.000413228
0.000413296
0.00041336
0.000413422
0.00041348
0.000413538
0.000413594
0.000413648
0.000413702
0.000413755
0.000413809
0.000413866
0.000413925
0.000413986
0.000414054
0.000414126
0.000414203
0.000414288
0.000414382
0.000414482
0.000414595
0.000414717
0.000414853
0.000414999
0.000415136
0.000415244
0.000415365
0.000415479
0.000415611
0.000415727
0.000415869
0.000415982
0.000416138
0.000416243
0.000416411
0.000416513
0.000416691
0.000416786
0.000416973
0.000417066
0.000417248
0.000417378
0.000417502
0.000417791
0.000417776
0.000418372
0.000418206
0.000419371
0.000406437
0.000191797
0.000289748
0.000359835
0.00039964
0.000425391
0.000443262
0.00045635
0.000466126
0.000473803
0.000479823
0.000484601
0.000488534
0.000491797
0.000494476
0.000496714
0.000498637
0.000500309
0.000501758
0.000503007
0.000504092
0.000505047
0.0005059
0.000506669
0.000507364
0.000507991
0.000508555
0.000509064
0.000509524
0.000509941
0.000510324
0.000510677
0.000511005
0.00051131
0.000511595
0.000511861
0.00051211
0.000512343
0.000512561
0.000512765
0.000512956
0.000513135
0.000513303
0.000513462
0.000513613
0.000513757
0.000513896
0.000514028
0.000514155
0.000514278
0.000514398
0.000514516
0.000514635
0.000514751
0.000514871
0.000514992
0.000515117
0.000515245
0.000515381
0.000515519
0.000515671
0.000515825
0.000515996
0.00051617
0.000516333
0.000516457
0.000516596
0.000516723
0.000516873
0.000516999
0.00051716
0.000517279
0.000517457
0.000517566
0.00051776
0.000517864
0.000518069
0.000518171
0.000518389
0.00051849
0.000518722
0.000518841
0.000519076
0.000519295
0.000519519
0.000519924
0.000520386
0.000521171
0.000507068
0.00018471
0.00029927
0.000392085
0.000447716
0.000484824
0.000511224
0.000530998
0.000546118
0.000558222
0.000567914
0.000575769
0.000582338
0.000587876
0.00059251
0.000596447
0.00059987
0.000602876
0.000605511
0.000607816
0.000609843
0.000611646
0.00061327
0.000614742
0.00061608
0.000617295
0.000618398
0.000619399
0.000620311
0.000621146
0.000621915
0.000622626
0.000623288
0.000623905
0.000624483
0.000625023
0.000625528
0.000626002
0.000626446
0.000626861
0.000627251
0.000627617
0.000627961
0.000628286
0.000628593
0.000628884
0.000629163
0.000629427
0.00062968
0.000629921
0.000630154
0.000630378
0.000630599
0.000630811
0.000631023
0.000631231
0.00063144
0.000631646
0.000631859
0.000632069
0.00063229
0.00063251
0.000632746
0.000632979
0.000633195
0.000633355
0.000633534
0.000633693
0.000633881
0.000634036
0.000634239
0.000634383
0.000634605
0.000634736
0.00063498
0.000635106
0.000635365
0.000635493
0.000635773
0.000635904
0.000636218
0.000636363
0.000636735
0.000636927
0.00063744
0.000637734
0.000638668
0.00063941
0.000624512
0.00016485
0.000293078
0.000412097
0.000487386
0.000538997
0.000576438
0.000604959
0.000627147
0.000645167
0.000659821
0.000671881
0.000682092
0.000690801
0.000698192
0.000704549
0.000710126
0.000715061
0.000719426
0.000723279
0.0007267
0.000729767
0.000732544
0.000735074
0.000737384
0.000739492
0.000741416
0.000743172
0.000744781
0.00074626
0.000747627
0.000748896
0.000750078
0.000751183
0.000752218
0.000753187
0.000754096
0.000754948
0.000755748
0.000756498
0.000757203
0.000757866
0.00075849
0.000759077
0.000759634
0.000760161
0.000760663
0.000761139
0.000761593
0.000762026
0.000762441
0.000762838
0.000763224
0.000763593
0.000763956
0.000764307
0.000764655
0.000764992
0.000765334
0.000765665
0.000766007
0.00076634
0.000766691
0.000767031
0.000767341
0.00076757
0.00076782
0.000768042
0.000768302
0.000768516
0.000768792
0.000768992
0.000769291
0.000769475
0.000769804
0.00076998
0.000770335
0.000770515
0.000770901
0.000771092
0.000771532
0.000771741
0.000772283
0.000772535
0.000773293
0.00077366
0.000774865
0.000775894
0.000760691
0.000129649
0.000266693
0.000414231
0.000513347
0.000583181
0.000634695
0.000674468
0.00070582
0.000731561
0.000752738
0.000770374
0.000785447
0.000798418
0.000809546
0.000819208
0.000827745
0.000835349
0.000842119
0.000848141
0.000853526
0.000858382
0.000862803
0.000866845
0.000870551
0.000873945
0.000877058
0.000879912
0.000882537
0.000884959
0.000887206
0.000889296
0.000891248
0.000893075
0.000894788
0.000896396
0.000897905
0.000899323
0.000900655
0.000901908
0.000903085
0.000904195
0.000905241
0.000906226
0.00090716
0.000908043
0.000908885
0.000909683
0.000910444
0.000911168
0.000911862
0.000912523
0.000913163
0.000913775
0.000914371
0.000914944
0.000915508
0.000916051
0.000916594
0.000917118
0.00091765
0.000918165
0.000918699
0.000919215
0.000919676
0.000920019
0.000920387
0.000920715
0.000921091
0.000921406
0.000921799
0.000922098
0.000922518
0.000922797
0.000923256
0.00092352
0.000924024
0.000924292
0.000924839
0.000925125
0.000925746
0.000926064
0.000926816
0.000927197
0.000928203
0.000928747
0.000930177
0.0009316
0.000916098
7.74319e-05
0.000215327
0.00039173
0.000518503
0.000610831
0.000680043
0.000734102
0.000777173
0.000812838
0.000842439
0.000867317
0.000888737
0.000907295
0.000923348
0.000937392
0.000949873
0.000961045
0.000971045
0.000979994
0.000988042
0.000995338
0.001002
0.00100812
0.00101375
0.00101892
0.00102368
0.00102806
0.00103211
0.00103585
0.00103933
0.00104258
0.00104562
0.00104846
0.00105114
0.00105365
0.00105602
0.00105824
0.00106033
0.0010623
0.00106416
0.00106591
0.00106756
0.00106912
0.0010706
0.001072
0.00107333
0.00107459
0.0010758
0.00107695
0.00107804
0.00107909
0.0010801
0.00108107
0.00108201
0.00108291
0.00108379
0.00108463
0.00108547
0.00108628
0.0010871
0.00108788
0.00108869
0.00108947
0.00109015
0.00109067
0.00109121
0.0010917
0.00109225
0.00109272
0.00109328
0.00109373
0.00109432
0.00109475
0.00109538
0.00109579
0.00109649
0.00109689
0.00109766
0.00109808
0.00109894
0.00109941
0.00110042
0.00110098
0.00110226
0.00110303
0.00110471
0.00110649
0.00109072
3.40485e-05
0.000140074
0.000335255
0.000493977
0.000613166
0.000704309
0.000776302
0.000834198
0.000882476
0.000922821
0.000956982
0.000986565
0.00101233
0.00103475
0.00105449
0.00107212
0.00108795
0.00110219
0.00111498
0.00112654
0.00113707
0.00114672
0.0011556
0.00116379
0.00117134
0.0011783
0.00118474
0.00119069
0.00119622
0.00120138
0.00120619
0.00121071
0.00121495
0.00121894
0.00122269
0.00122622
0.00122955
0.00123268
0.00123564
0.00123843
0.00124106
0.00124355
0.00124591
0.00124814
0.00125025
0.00125226
0.00125417
0.001256
0.00125774
0.0012594
0.00126099
0.00126251
0.00126397
0.00126539
0.00126674
0.00126807
0.00126934
0.00127059
0.0012718
0.00127301
0.00127418
0.00127536
0.00127651
0.00127751
0.00127826
0.00127904
0.00127975
0.00128053
0.00128122
0.001282
0.00128267
0.00128348
0.00128412
0.00128497
0.00128559
0.00128651
0.00128712
0.00128814
0.00128874
0.00128988
0.00129054
0.00129184
0.00129261
0.00129419
0.0012952
0.00129716
0.0012992
0.00128348
4.31795e-06
4.57444e-05
0.00023367
0.000427877
0.000579124
0.000696596
0.000790766
0.000867228
0.000931396
0.000985311
0.00103126
0.00107123
0.00110618
0.00113675
0.0011638
0.00118804
0.00120988
0.00122957
0.00124734
0.00126345
0.00127817
0.0012917
0.00130418
0.00131572
0.00132637
0.00133623
0.00134536
0.00135382
0.0013617
0.00136906
0.00137595
0.00138242
0.00138851
0.00139423
0.00139963
0.00140472
0.00140951
0.00141404
0.00141831
0.00142234
0.00142616
0.00142977
0.00143318
0.00143642
0.0014395
0.00144242
0.0014452
0.00144786
0.00145039
0.00145281
0.00145512
0.00145735
0.00145947
0.00146153
0.0014635
0.00146541
0.00146726
0.00146907
0.00147081
0.00147254
0.00147421
0.0014759
0.00147753
0.00147893
0.00147999
0.00148108
0.00148209
0.00148315
0.00148412
0.00148519
0.00148612
0.0014872
0.0014881
0.00148922
0.0014901
0.00149127
0.00149214
0.00149341
0.00149428
0.00149568
0.00149658
0.00149817
0.00149919
0.00150102
0.00150237
0.00150447
0.0015067
0.00149156
1.78316e-07
2.71846e-06
7.99521e-05
0.000305183
0.000493458
0.000642842
0.00076396
0.000863214
0.000947201
0.0010181
0.00107889
0.00113201
0.00117856
0.00121945
0.00125579
0.00128846
0.00131795
0.00134461
0.00136872
0.00139067
0.00141077
0.00142929
0.0014464
0.00146223
0.00147689
0.00149047
0.00150306
0.00151478
0.0015257
0.00153592
0.0015455
0.00155451
0.00156299
0.00157098
0.00157851
0.00158562
0.00159233
0.00159866
0.00160465
0.00161031
0.00161566
0.00162074
0.00162554
0.0016301
0.00163443
0.00163856
0.00164248
0.00164622
0.00164979
0.00165321
0.00165647
0.0016596
0.0016626
0.00166549
0.00166826
0.00167096
0.00167354
0.00167607
0.0016785
0.0016809
0.00168322
0.00168554
0.00168779
0.00168969
0.00169114
0.0016926
0.00169397
0.00169539
0.0016967
0.00169808
0.00169934
0.00170072
0.00170195
0.00170334
0.00170453
0.00170596
0.00170715
0.00170865
0.00170984
0.00171144
0.00171268
0.00171444
0.0017158
0.00171775
0.00171943
0.00172161
0.00172394
0.00171005
2.65088e-08
8.0019e-08
1.99641e-06
9.47612e-05
0.000336927
0.000523621
0.000677655
0.00080522
0.000913532
0.0010053
0.00108457
0.00115417
0.00121528
0.00126916
0.00131724
0.00136058
0.00139976
0.00143521
0.00146738
0.00149673
0.00152368
0.00154855
0.00157155
0.00159287
0.00161262
0.00163094
0.00164797
0.00166383
0.00167864
0.00169252
0.00170556
0.00171782
0.00172937
0.00174026
0.00175054
0.00176024
0.00176941
0.00177807
0.00178626
0.00179401
0.00180134
0.0018083
0.00181489
0.00182116
0.0018271
0.00183277
0.00183816
0.00184331
0.00184822
0.00185292
0.0018574
0.0018617
0.00186582
0.00186978
0.00187358
0.00187726
0.00188079
0.00188422
0.00188753
0.00189077
0.0018939
0.00189699
0.00189999
0.00190251
0.00190442
0.00190632
0.00190813
0.00190994
0.00191165
0.0019134
0.00191503
0.00191674
0.00191831
0.00192
0.00192153
0.00192322
0.00192473
0.00192644
0.00192796
0.00192974
0.0019313
0.00193317
0.00193485
0.00193686
0.00193879
0.00194096
0.00194335
0.00193133
1.63581e-08
1.94196e-08
4.11077e-08
1.01701e-06
7.14726e-05
0.000308368
0.000507614
0.000669397
0.000808169
0.00092585
0.00102819
0.00111815
0.00119722
0.00126722
0.00133005
0.00138682
0.00143819
0.0014847
0.00152699
0.00156569
0.0016013
0.00163422
0.00166469
0.00169294
0.00171913
0.00174345
0.00176608
0.0017872
0.00180696
0.0018255
0.00184292
0.00185932
0.00187478
0.00188937
0.00190314
0.00191615
0.00192843
0.00194005
0.00195104
0.00196145
0.0019713
0.00198066
0.00198953
0.00199796
0.00200597
0.00201361
0.00202087
0.00202781
0.00203443
0.00204076
0.00204679
0.00205259
0.00205812
0.00206344
0.00206854
0.00207346
0.00207817
0.00208274
0.00208713
0.00209141
0.00209553
0.00209957
0.00210348
0.00210671
0.00210918
0.00211159
0.00211389
0.00211615
0.00211831
0.00212046
0.00212249
0.00212455
0.00212649
0.00212847
0.00213034
0.00213228
0.0021341
0.00213602
0.00213782
0.00213974
0.00214157
0.00214352
0.00214542
0.00214743
0.00214951
0.00215157
0.00215398
0.00214428
1.5311e-08
1.5483e-08
1.64613e-08
2.48697e-08
2.53353e-07
2.19669e-05
0.000194527
0.00042176
0.000601706
0.000750302
0.000881606
0.00099739
0.00109886
0.00118909
0.00127028
0.00134374
0.00141019
0.00147042
0.00152532
0.00157576
0.00162231
0.00166537
0.00170524
0.0017422
0.00177648
0.00180835
0.00183804
0.00186579
0.00189179
0.00191622
0.00193919
0.00196084
0.00198125
0.00200051
0.00201869
0.00203586
0.00205209
0.00206745
0.00208198
0.00209574
0.00210878
0.00212117
0.00213292
0.00214409
0.00215472
0.00216485
0.00217449
0.00218369
0.00219246
0.00220085
0.00220886
0.00221653
0.00222385
0.00223088
0.0022376
0.00224408
0.00225027
0.00225625
0.00226198
0.00226752
0.00227285
0.00227803
0.00228302
0.0022871
0.0022902
0.0022932
0.00229606
0.00229884
0.00230149
0.00230407
0.00230654
0.00230896
0.00231127
0.00231355
0.00231575
0.00231792
0.00232002
0.0023221
0.00232414
0.00232616
0.00232818
0.00233016
0.0023322
0.00233414
0.00233629
0.00233816
0.00234054
0.00233284
1.51998e-08
1.50847e-08
1.50836e-08
1.53345e-08
1.7821e-08
4.93432e-08
1.18941e-06
4.46404e-05
0.000222701
0.000427603
0.000607089
0.000756259
0.000884519
0.000999795
0.00110468
0.00119944
0.00128483
0.00136218
0.00143294
0.00149805
0.00155823
0.00161394
0.00166551
0.00171328
0.00175761
0.00179887
0.00183736
0.00187344
0.00190731
0.00193916
0.00196914
0.0019974
0.00202405
0.00204919
0.00207291
0.00209533
0.00211651
0.00213655
0.00215552
0.0021735
0.00219055
0.00220674
0.00222212
0.00223675
0.00225067
0.00226393
0.00227657
0.00228863
0.00230012
0.00231111
0.00232159
0.00233161
0.00234118
0.00235034
0.00235909
0.00236747
0.00237548
0.00238317
0.00239052
0.00239758
0.00240434
0.00241084
0.00241708
0.0024221
0.00242591
0.00242956
0.00243301
0.00243631
0.00243945
0.00244246
0.00244532
0.00244807
0.00245069
0.00245321
0.00245561
0.00245794
0.00246016
0.00246232
0.00246439
0.0024664
0.00246836
0.00247022
0.00247212
0.00247381
0.00247574
0.00247717
0.00247935
0.00247578
1.52068e-08
1.51174e-08
1.5073e-08
1.49839e-08
1.50165e-08
1.55104e-08
1.92401e-08
5.32508e-08
8.01831e-07
2.07986e-05
0.000140421
0.000313656
0.000487295
0.000648137
0.000789021
0.000911123
0.00101915
0.0011173
0.00120794
0.00129208
0.00136995
0.00144184
0.00150814
0.00156944
0.00162631
0.00167932
0.00172893
0.00177543
0.00181913
0.00186027
0.00189902
0.00193553
0.00196994
0.0020024
0.00203302
0.00206194
0.00208927
0.00211513
0.00213963
0.00216286
0.0021849
0.00220585
0.00222577
0.00224474
0.0022628
0.00228002
0.00229643
0.00231208
0.002327
0.00234125
0.00235484
0.00236782
0.0023802
0.00239203
0.0024033
0.00241406
0.00242431
0.00243409
0.00244339
0.00245226
0.0024607
0.00246874
0.00247637
0.00248243
0.002487
0.0024913
0.00249535
0.00249916
0.00250274
0.00250612
0.00250928
0.00251227
0.00251506
0.00251769
0.00252015
0.00252247
0.00252463
0.00252668
0.00252856
0.00253038
0.002532
0.00253362
0.002535
0.00253648
0.00253759
0.00253901
0.00253979
0.0025413
1.52191e-08
1.51645e-08
1.51237e-08
1.50654e-08
1.50249e-08
1.49811e-08
1.5024e-08
1.53975e-08
1.7437e-08
2.86754e-08
1.21102e-07
1.49981e-06
1.95901e-05
0.000111095
0.000242869
0.000382298
0.000524155
0.000661251
0.000788151
0.000902755
0.00100542
0.0010978
0.00118186
0.00125934
0.0013315
0.00139918
0.00146289
0.00152294
0.00157949
0.00163271
0.00168274
0.00172978
0.00177401
0.00181565
0.00185488
0.00189191
0.00192691
0.00196004
0.00199144
0.00202125
0.00204957
0.00207651
0.00210213
0.00212653
0.00214976
0.00217191
0.00219302
0.00221316
0.00223235
0.00225065
0.0022681
0.00228474
0.0023006
0.0023157
0.00233009
0.0023438
0.00235682
0.00236921
0.00238096
0.0023921
0.00240265
0.00241262
0.00242203
0.00242943
0.00243496
0.00244014
0.00244496
0.00244945
0.00245363
0.00245752
0.00246113
0.00246447
0.00246755
0.0024704
0.00247302
0.00247543
0.00247762
0.00247964
0.00248145
0.00248311
0.00248458
0.00248592
0.00248708
0.00248814
0.00248903
0.00248984
0.00249052
0.00249551
1.52275e-08
1.51888e-08
1.51662e-08
1.51242e-08
1.51023e-08
1.50611e-08
1.50401e-08
1.50078e-08
1.50231e-08
1.50963e-08
1.57699e-08
1.72306e-08
2.66287e-08
5.641e-08
3.03221e-07
2.08847e-06
1.64125e-05
7.06439e-05
0.000158943
0.000256951
0.000359914
0.000466531
0.000574132
0.000679801
0.000781166
0.000876722
0.000965711
0.00104804
0.00112396
0.00119403
0.00125883
0.00131902
0.00137515
0.00142778
0.00147729
0.00152408
0.00156839
0.00161048
0.0016505
0.00168862
0.00172493
0.00175955
0.00179256
0.00182404
0.00185404
0.00188264
0.00190989
0.00193585
0.00196057
0.00198411
0.00200651
0.00202782
0.00204807
0.00206732
0.00208559
0.00210293
0.00211936
0.00213492
0.00214962
0.00216349
0.00217655
0.00218881
0.00220028
0.0022092
0.00221582
0.00222195
0.00222761
0.00223283
0.00223762
0.00224201
0.00224603
0.00224967
0.00225298
0.00225595
0.00225861
0.00226098
0.00226307
0.00226489
0.00226648
0.0022678
0.00226893
0.00226981
0.00227056
0.00227104
0.00227146
0.00227158
0.00227199
0.00228124
1.52329e-08
1.52092e-08
1.51897e-08
1.51663e-08
1.51475e-08
1.51258e-08
1.51077e-08
1.50871e-08
1.50691e-08
1.50515e-08
1.50412e-08
1.50506e-08
1.5131e-08
1.52931e-08
1.60048e-08
1.72704e-08
2.16938e-08
3.21321e-08
6.8394e-08
2.06984e-07
8.47476e-07
3.79336e-06
1.49432e-05
4.42932e-05
9.37335e-05
0.000153988
0.000217993
0.000284202
0.000352368
0.000422224
0.000493053
0.000564113
0.000634561
0.000703739
0.000771032
0.000836042
0.000898431
0.00095804
0.00101475
0.00106856
0.00111951
0.00116767
0.00121316
0.00125612
0.00129665
0.00133493
0.00137106
0.0014052
0.00143745
0.00146794
0.00149677
0.00152403
0.00154981
0.00157419
0.00159722
0.00161898
0.0016395
0.00165884
0.00167702
0.00169408
0.00171004
0.0017249
0.00173868
0.00174928
0.00175709
0.00176424
0.00177078
0.00177673
0.00178211
0.00178697
0.0017913
0.00179518
0.00179858
0.00180157
0.00180412
0.00180631
0.0018081
0.00180959
0.00181071
0.00181158
0.0018121
0.00181244
0.00181241
0.00181226
0.00181194
0.00181105
0.00181109
0.00182548
1.52367e-08
1.52204e-08
1.52103e-08
1.51928e-08
1.51833e-08
1.51671e-08
1.51582e-08
1.5143e-08
1.51347e-08
1.51205e-08
1.51119e-08
1.50987e-08
1.50917e-08
1.50828e-08
1.50846e-08
1.50922e-08
1.5123e-08
1.5181e-08
1.53304e-08
1.55989e-08
1.61983e-08
1.7309e-08
1.97911e-08
2.38389e-08
3.33736e-08
5.20022e-08
9.68747e-08
2.01312e-07
4.7055e-07
1.1391e-06
2.80065e-06
6.55512e-06
1.43025e-05
2.79477e-05
4.8673e-05
7.54318e-05
0.00010639
0.000139326
0.000173246
0.000207399
0.000241782
0.000276187
0.000310713
0.000345196
0.000379651
0.00041391
0.000447924
0.000481542
0.000514688
0.00054724
0.000579116
0.000610229
0.000640495
0.000669862
0.000698248
0.000725628
0.000751907
0.000776876
0.000800636
0.000822987
0.000844041
0.000863587
0.000881758
0.000895585
0.000905759
0.000914964
0.000923346
0.000930833
0.000937577
0.000943498
0.000948756
0.000953261
0.000957183
0.000960418
0.00096315
0.00096526
0.000966945
0.000968069
0.000968847
0.000969122
0.000969011
0.000968679
0.000967915
0.000967151
0.00096564
0.000964567
0.000962436
0.000979798
1.52394e-08
1.52347e-08
1.52274e-08
1.52224e-08
1.52156e-08
1.52111e-08
1.52046e-08
1.52005e-08
1.51944e-08
1.51906e-08
1.51848e-08
1.51813e-08
1.51758e-08
1.51719e-08
1.51667e-08
1.51633e-08
1.51589e-08
1.51566e-08