/*--------------------------------*- C++ -*----------------------------------*\
| =========                 |                                                 |
| \\      /  F ield         | OpenFOAM: The Open Source CFD Toolbox           |
|  \\    /   O peration     | Version:  v1912                                 |
|   \\  /    A nd           | Website:  www.openfoam.com                      |
|    \\/     M anipulation  |                                                 |
\*---------------------------------------------------------------------------*/
FoamFile
{
    version     2.0;
    format      ascii;
    class       volScalarField;
    location    "10000";
    object      nut;
}
// * * * * * * * * * * * * * * * * * * * * * * * * * * * * * * * * * * * * * //

dimensions      [0 2 -1 0 0 0 0];


internalField   nonuniform List<scalar> 
20540
(
1.04748e-06
0.000155772
1.06582e-06
0.000156014
1.11209e-06
0.000156562
1.19952e-06
0.000157463
1.34575e-06
0.000158717
1.57232e-06
0.000160238
1.89973e-06
0.000161782
2.33289e-06
0.000162842
2.83195e-06
0.000162651
3.2734e-06
0.000160194
3.43859e-06
0.000153884
3.08444e-06
0.000141512
2.15134e-06
0.000120079
1.01261e-06
8.61435e-05
2.75575e-07
4.0036e-05
5.25315e-08
5.27296e-06
2.14597e-08
2.77505e-07
1.6591e-08
3.12901e-08
1.55441e-08
1.7672e-08
1.52486e-08
1.54804e-08
1.5249e-08
1.5325e-08
1.52414e-08
1.52509e-08
1.52446e-08
1.52451e-08
1.52455e-08
1.52451e-08
1.52452e-08
1.52449e-08
1.5245e-08
1.52446e-08
1.52446e-08
1.52443e-08
1.52442e-08
1.52438e-08
1.52437e-08
1.52433e-08
1.52431e-08
1.52424e-08
1.52424e-08
1.52416e-08
1.52417e-08
1.52409e-08
1.52417e-08
1.52409e-08
1.52424e-08
1.52416e-08
1.5243e-08
1.52424e-08
1.52436e-08
1.52432e-08
1.52441e-08
1.52438e-08
1.52446e-08
1.52442e-08
1.52449e-08
1.52446e-08
1.52453e-08
1.52449e-08
1.52456e-08
1.52449e-08
1.52443e-08
1.52448e-08
1.52426e-08
1.52457e-08
1.525e-08
1.52698e-08
1.52755e-08
1.53628e-08
1.54523e-08
1.60899e-08
1.57026e-08
2.11164e-08
1.8479e-08
8.81504e-08
2.70522e-08
1.44194e-06
1.13782e-07
1.90023e-05
5.24465e-07
6.42388e-05
1.44872e-06
0.000103679
2.5298e-06
0.000130727
3.23636e-06
0.000147531
3.38877e-06
0.000157063
3.12583e-06
0.000161732
2.67138e-06
0.000163321
2.20201e-06
0.000163094
1.80737e-06
0.000161873
1.51204e-06
0.000160332
1.30759e-06
0.000158872
1.17495e-06
0.000157686
1.09508e-06
0.000156838
1.05247e-06
0.000156322
1.03545e-06
0.000156094
1.00441e-08
6.56197e-09
5.71435e-09
1.9211e-08
1.76852e-08
4.79501e-09
4.66184e-09
4.56142e-09
4.48451e-09
4.42373e-09
4.37612e-09
1.37467e-08
1.35161e-08
1.33091e-08
1.31266e-08
1.29656e-08
1.28232e-08
1.26964e-08
1.25828e-08
1.24802e-08
1.23871e-08
1.22901e-08
4.13644e-09
4.12321e-09
4.11462e-09
4.10779e-09
4.10155e-09
4.09585e-09
4.09061e-09
4.08579e-09
4.08135e-09
4.07726e-09
4.07513e-09
4.07449e-09
4.06986e-09
4.06696e-09
4.06816e-09
4.06245e-09
4.05973e-09
4.06207e-09
4.05685e-09
4.05479e-09
4.05791e-09
4.05392e-09
4.05313e-09
4.05897e-09
4.05598e-09
4.05442e-09
4.06081e-09
4.05858e-09
4.05795e-09
4.06384e-09
4.05827e-09
4.05651e-09
4.06433e-09
4.06685e-09
4.0699e-09
4.07284e-09
4.07828e-09
4.08176e-09
4.09132e-09
4.10197e-09
4.11204e-09
4.12261e-09
4.1381e-09
4.14989e-09
4.16266e-09
4.17638e-09
4.19104e-09
4.20668e-09
4.22338e-09
4.24107e-09
4.26003e-09
4.27992e-09
4.3015e-09
4.32373e-09
4.3486e-09
4.37329e-09
4.40274e-09
4.42996e-09
4.46638e-09
4.49714e-09
4.54404e-09
4.58595e-09
4.65049e-09
4.83197e-09
1.52819e-08
5.51944e-09
1.06459e-06
7.6026e-07
6.54237e-07
1.13935e-06
1.05967e-06
5.39517e-07
5.22424e-07
5.09745e-07
5.00039e-07
4.9233e-07
4.86302e-07
8.52417e-07
8.40757e-07
8.29955e-07
8.20435e-07
8.12043e-07
8.04625e-07
7.9803e-07
7.9212e-07
7.86786e-07
7.81951e-07
7.77102e-07
4.55604e-07
4.53036e-07
4.51775e-07
4.50826e-07
4.49958e-07
4.49162e-07
4.48429e-07
4.47754e-07
4.47131e-07
4.46554e-07
4.46444e-07
4.46483e-07
4.45611e-07
4.45188e-07
4.45414e-07
4.44529e-07
4.44179e-07
4.44568e-07
4.43759e-07
4.43496e-07
4.43998e-07
4.43388e-07
4.43376e-07
4.44368e-07
4.43858e-07
4.43652e-07
4.44601e-07
4.44595e-07
4.44398e-07
4.4489e-07
4.4429e-07
4.44143e-07
4.45061e-07
4.45389e-07
4.45717e-07
4.46172e-07
4.47177e-07
4.47437e-07
4.48771e-07
4.50245e-07
4.51683e-07
4.5334e-07
4.55697e-07
4.5734e-07
4.59089e-07
4.6095e-07
4.62926e-07
4.65014e-07
4.67227e-07
4.69549e-07
4.7202e-07
4.74586e-07
4.7735e-07
4.80167e-07
4.83292e-07
4.8636e-07
4.89984e-07
4.93301e-07
4.97654e-07
5.01345e-07
5.06671e-07
5.11692e-07
5.19731e-07
5.46822e-07
8.90132e-07
7.09893e-07
1.42049e-05
1.10858e-05
9.47672e-06
9.6173e-06
9.02262e-06
7.5702e-06
7.2694e-06
7.03884e-06
6.85803e-06
6.71208e-06
6.59122e-06
7.45253e-06
7.36308e-06
7.28063e-06
7.20758e-06
7.14312e-06
7.08609e-06
7.03536e-06
6.98986e-06
6.94875e-06
6.91146e-06
6.87617e-06
5.96131e-06
5.92684e-06
5.90323e-06
5.88327e-06
5.86497e-06
5.84813e-06
5.83259e-06
5.81823e-06
5.80494e-06
5.79263e-06
5.78259e-06
5.77357e-06
5.76242e-06
5.7535e-06
5.74686e-06
5.73742e-06
5.73034e-06
5.7257e-06
5.71792e-06
5.71249e-06
5.70972e-06
5.7039e-06
5.70159e-06
5.70305e-06
5.69942e-06
5.69759e-06
5.69795e-06
5.69768e-06
5.70077e-06
5.70436e-06
5.70324e-06
5.70732e-06
5.71453e-06
5.72139e-06
5.73052e-06
5.74265e-06
5.75826e-06
5.77533e-06
5.79752e-06
5.82283e-06
5.85256e-06
5.8835e-06
5.91321e-06
5.94057e-06
5.9694e-06
5.99994e-06
6.0322e-06
6.06617e-06
6.1019e-06
6.13927e-06
6.17861e-06
6.2193e-06
6.26253e-06
6.30638e-06
6.35404e-06
6.40074e-06
6.45384e-06
6.50282e-06
6.56299e-06
6.61477e-06
6.68101e-06
6.7415e-06
6.82872e-06
6.91105e-06
7.7604e-06
6.65365e-06
4.5069e-05
4.51013e-05
4.30275e-05
4.15187e-05
4.00521e-05
3.84766e-05
3.75637e-05
3.68107e-05
3.61909e-05
3.56708e-05
3.52236e-05
3.52833e-05
3.4954e-05
3.46611e-05
3.44008e-05
3.41693e-05
3.39632e-05
3.37787e-05
3.36122e-05
3.3461e-05
3.33232e-05
3.3197e-05
3.2658e-05
3.25458e-05
3.24492e-05
3.23621e-05
3.22817e-05
3.22075e-05
3.21386e-05
3.20746e-05
3.20152e-05
3.19601e-05
3.19095e-05
3.18626e-05
3.18175e-05
3.17764e-05
3.17389e-05
3.17023e-05
3.16692e-05
3.16394e-05
3.16101e-05
3.1584e-05
3.15612e-05
3.1539e-05
3.15206e-05
3.15066e-05
3.14933e-05
3.14814e-05
3.1475e-05
3.14701e-05
3.14741e-05
3.14797e-05
3.14851e-05
3.15002e-05
3.15228e-05
3.15508e-05
3.15868e-05
3.16319e-05
3.16873e-05
3.17527e-05
3.1831e-05
3.19216e-05
3.20269e-05
3.21278e-05
3.22178e-05
3.23112e-05
3.24088e-05
3.25118e-05
3.26193e-05
3.27322e-05
3.2849e-05
3.29712e-05
3.30968e-05
3.32271e-05
3.33612e-05
3.34984e-05
3.36406e-05
3.37829e-05
3.39334e-05
3.40752e-05
3.42408e-05
3.43695e-05
3.45607e-05
3.46251e-05
3.49988e-05
3.43075e-05
3.71419e-05
2.66435e-05
8.14845e-05
9.06423e-05
9.16585e-05
9.06178e-05
8.94068e-05
8.83051e-05
8.73354e-05
8.64698e-05
8.57257e-05
8.50766e-05
8.45001e-05
8.39788e-05
8.35336e-05
8.31346e-05
8.27755e-05
8.24532e-05
8.21643e-05
8.19038e-05
8.16668e-05
8.14499e-05
8.12512e-05
8.10693e-05
8.09163e-05
8.07624e-05
8.06219e-05
8.04927e-05
8.03732e-05
8.02623e-05
8.01591e-05
8.00631e-05
7.99738e-05
7.98907e-05
7.98133e-05
7.97413e-05
7.96743e-05
7.96119e-05
7.95538e-05
7.94996e-05
7.9449e-05
7.94022e-05
7.93587e-05
7.93184e-05
7.92815e-05
7.92483e-05
7.92178e-05
7.91914e-05
7.91703e-05
7.91519e-05
7.91385e-05
7.91298e-05
7.91289e-05
7.91333e-05
7.91432e-05
7.91611e-05
7.91894e-05
7.92271e-05
7.92755e-05
7.93356e-05
7.94092e-05
7.94972e-05
7.96014e-05
7.97224e-05
7.98623e-05
7.99929e-05
8.01075e-05
8.02307e-05
8.03586e-05
8.04938e-05
8.06331e-05
8.07804e-05
8.09301e-05
8.10885e-05
8.12469e-05
8.14147e-05
8.15808e-05
8.17559e-05
8.19273e-05
8.21073e-05
8.2284e-05
8.2455e-05
8.26573e-05
8.27817e-05
8.30579e-05
8.29638e-05
8.37392e-05
8.18914e-05
8.71234e-05
6.68522e-05
0.000116804
0.000138207
0.000145056
0.0001465
0.000146641
0.000146365
0.000145884
0.000145323
0.000144783
0.000144267
0.000143774
0.000143252
0.000142842
0.000142464
0.000142115
0.000141796
0.000141507
0.000141244
0.000141001
0.000140777
0.000140569
0.000140378
0.000140278
0.000140117
0.000139968
0.00013983
0.000139702
0.000139583
0.000139472
0.000139368
0.000139271
0.00013918
0.000139096
0.000139018
0.000138945
0.000138877
0.000138814
0.000138755
0.0001387
0.000138648
0.000138601
0.000138557
0.000138516
0.00013848
0.000138446
0.000138416
0.000138392
0.000138372
0.000138357
0.000138347
0.000138343
0.000138348
0.000138359
0.000138377
0.000138406
0.000138446
0.000138496
0.00013856
0.000138637
0.00013873
0.000138839
0.000138966
0.000139113
0.000139249
0.000139367
0.000139496
0.000139628
0.000139769
0.000139912
0.000140065
0.000140217
0.000140381
0.000140539
0.000140712
0.000140875
0.000141056
0.000141221
0.000141406
0.000141573
0.00014174
0.000141947
0.00014204
0.000142366
0.000142115
0.00014321
0.000140737
0.00014675
0.000126033
0.000148186
0.000183814
0.000198731
0.000204229
0.000206756
0.000207961
0.000208507
0.000208655
0.000208637
0.000208507
0.0002083
0.000208035
0.000207803
0.000207563
0.000207323
0.000207095
0.000206882
0.000206682
0.000206492
0.00020631
0.000206139
0.000205979
0.000205876
0.00020574
0.000205613
0.000205494
0.000205383
0.000205278
0.00020518
0.000205087
0.000205001
0.00020492
0.000204845
0.000204775
0.00020471
0.000204649
0.000204592
0.00020454
0.00020449
0.000204444
0.000204402
0.000204362
0.000204326
0.000204293
0.000204263
0.000204236
0.000204216
0.000204199
0.000204186
0.000204178
0.000204177
0.000204183
0.000204196
0.000204215
0.000204246
0.000204286
0.000204337
0.000204401
0.000204478
0.00020457
0.000204677
0.000204803
0.000204946
0.000205081
0.000205195
0.00020532
0.000205448
0.000205585
0.000205722
0.00020587
0.000206013
0.000206173
0.00020632
0.000206489
0.000206637
0.000206814
0.00020696
0.000207141
0.000207289
0.000207445
0.000207648
0.00020771
0.000208066
0.000207729
0.000208951
0.000206526
0.000211824
0.000194669
0.000174246
0.000226099
0.000251473
0.000262756
0.000268913
0.000272525
0.000274791
0.000276181
0.000277105
0.000277694
0.000278041
0.000278245
0.000278374
0.000278425
0.000278424
0.000278396
0.000278355
0.000278302
0.000278237
0.000278163
0.000278085
0.000278007
0.000277953
0.000277883
0.000277815
0.000277749
0.000277686
0.000277623
0.000277563
0.000277506
0.000277451
0.0002774
0.000277352
0.000277307
0.000277266
0.000277227
0.000277191
0.000277157
0.000277126
0.000277097
0.00027707
0.000277045
0.000277021
0.000277002
0.000276983
0.000276967
0.000276957
0.00027695
0.000276946
0.000276947
0.000276953
0.000276966
0.000276985
0.000277011
0.000277046
0.000277091
0.000277146
0.000277213
0.000277292
0.000277385
0.000277493
0.000277618
0.00027776
0.000277893
0.000278003
0.000278125
0.000278248
0.000278382
0.000278512
0.000278657
0.00027879
0.000278947
0.00027908
0.000279247
0.00027938
0.000279555
0.000279683
0.000279863
0.000279992
0.000280144
0.000280338
0.000280387
0.000280755
0.000280426
0.000281583
0.000279705
0.000283568
0.000269165
0.000193845
0.000263897
0.000302592
0.0003218
0.000333181
0.000340429
0.000345377
0.000348766
0.000351252
0.000353064
0.000354376
0.00035538
0.000356163
0.000356752
0.000357199
0.000357554
0.000357845
0.000358079
0.000358262
0.000358402
0.000358513
0.000358604
0.000358689
0.000358756
0.000358811
0.000358857
0.000358893
0.000358922
0.000358944
0.000358962
0.000358976
0.000358989
0.000359
0.000359011
0.000359022
0.000359031
0.00035904
0.000359049
0.000359057
0.000359065
0.000359072
0.000359079
0.000359086
0.000359094
0.000359102
0.000359111
0.000359124
0.000359138
0.000359155
0.000359176
0.000359199
0.00035923
0.000359264
0.000359305
0.000359353
0.000359411
0.000359477
0.000359554
0.000359641
0.000359743
0.000359856
0.000359987
0.000360131
0.000360268
0.000360378
0.0003605
0.00036062
0.000360755
0.000360879
0.000361025
0.00036115
0.000361309
0.000361431
0.000361601
0.000361719
0.000361899
0.000362011
0.000362198
0.00036231
0.000362474
0.00036265
0.000362718
0.000363076
0.000362855
0.000363795
0.000362748
0.000365088
0.000351588
0.000205674
0.000295306
0.000350782
0.000380521
0.000399094
0.000411525
0.000420404
0.000426812
0.000431713
0.000435462
0.000438338
0.000440647
0.000442523
0.000444028
0.00044525
0.000446274
0.00044715
0.000447896
0.000448526
0.000449059
0.000449517
0.000449919
0.000450282
0.000450604
0.000450891
0.000451147
0.000451374
0.000451576
0.000451756
0.000451919
0.000452067
0.000452205
0.000452332
0.000452451
0.000452562
0.000452666
0.000452763
0.000452854
0.000452939
0.000453019
0.000453094
0.000453165
0.000453231
0.000453295
0.000453356
0.000453414
0.000453473
0.000453531
0.000453589
0.000453649
0.000453709
0.000453774
0.000453841
0.000453912
0.000453989
0.000454074
0.000454164
0.000454265
0.000454373
0.000454495
0.000454624
0.000454772
0.000454929
0.000455077
0.000455193
0.000455323
0.000455446
0.000455587
0.000455712
0.000455866
0.000455988
0.000456156
0.000456271
0.000456453
0.000456563
0.000456757
0.000456861
0.000457064
0.000457168
0.000457364
0.000457515
0.000457644
0.000457969
0.000457943
0.0004586
0.000458421
0.000459638
0.00044555
0.000208108
0.000317589
0.000393761
0.000437144
0.000465296
0.000484792
0.000499145
0.000509854
0.000518264
0.000524886
0.000530127
0.000534436
0.000538016
0.00054097
0.000543435
0.000545545
0.000547378
0.000548969
0.000550344
0.000551537
0.000552585
0.000553518
0.000554362
0.000555124
0.000555812
0.000556433
0.000556993
0.0005575
0.000557959
0.00055838
0.000558767
0.000559125
0.000559459
0.00055977
0.000560062
0.000560335
0.00056059
0.00056083
0.000561053
0.000561264
0.00056146
0.000561646
0.00056182
0.000561985
0.000562142
0.00056229
0.000562434
0.000562573
0.000562706
0.000562838
0.000562966
0.000563096
0.000563223
0.000563353
0.000563483
0.00056362
0.000563758
0.000563906
0.000564056
0.00056422
0.000564386
0.000564571
0.00056476
0.000564937
0.000565071
0.000565222
0.000565359
0.000565521
0.000565657
0.000565833
0.000565961
0.000566155
0.000566272
0.000566484
0.000566597
0.000566821
0.000566932
0.000567169
0.000567282
0.000567532
0.000567667
0.000567919
0.000568162
0.0005684
0.00056883
0.000569345
0.000570118
0.00055468
0.000199555
0.000327153
0.000428103
0.000488781
0.000529382
0.000558214
0.00057991
0.000596481
0.000609749
0.000620408
0.000629025
0.000636225
0.000642302
0.000647406
0.000651738
0.000655494
0.000658791
0.000661687
0.000664223
0.000666451
0.000668431
0.000670209
0.000671824
0.000673292
0.000674627
0.00067584
0.000676943
0.000677947
0.000678865
0.00067971
0.00068049
0.000681216
0.000681892
0.000682525
0.000683116
0.000683671
0.000684191
0.000684679
0.000685136
0.000685565
0.000685967
0.000686347
0.000686703
0.000687041
0.000687359
0.000687661
0.000687949
0.000688226
0.000688489
0.000688745
0.00068899
0.000689231
0.000689464
0.000689696
0.000689921
0.00069015
0.000690375
0.000690607
0.000690835
0.000691077
0.000691315
0.000691572
0.000691826
0.000692061
0.000692236
0.00069243
0.000692602
0.000692808
0.000692975
0.000693196
0.000693352
0.000693595
0.000693737
0.000694004
0.000694141
0.000694423
0.000694562
0.000694867
0.00069501
0.000695351
0.000695509
0.000695912
0.000696118
0.000696671
0.000696975
0.000697985
0.000698705
0.000682362
0.00017743
0.00031975
0.000449078
0.0005312
0.000587688
0.000628602
0.000659902
0.000684225
0.000703979
0.00072009
0.000733318
0.00074451
0.000754066
0.000762199
0.000769188
0.000775305
0.00078072
0.000785515
0.000789754
0.000793514
0.00079688
0.000799923
0.000802698
0.000805233
0.000807549
0.000809665
0.000811598
0.000813369
0.000814996
0.000816498
0.00081789
0.000819187
0.000820398
0.000821533
0.000822596
0.000823594
0.000824529
0.000825409
0.000826234
0.00082701
0.000827739
0.000828426
0.000829073
0.000829685
0.000830263
0.000830811
0.000831331
0.000831829
0.000832302
0.000832757
0.000833192
0.000833615
0.00083402
0.000834418
0.000834801
0.000835182
0.000835551
0.000835924
0.000836286
0.00083666
0.000837022
0.000837406
0.000837778
0.000838116
0.000838366
0.00083864
0.000838881
0.000839166
0.000839397
0.0008397
0.000839917
0.000840245
0.000840444
0.000840804
0.000840995
0.000841382
0.000841578
0.000841998
0.000842205
0.000842683
0.000842908
0.000843493
0.000843761
0.000844573
0.000844955
0.000846244
0.000847266
0.000830576
0.000139685
0.000290725
0.000450508
0.000558549
0.000634978
0.000691286
0.000734934
0.000769302
0.000797521
0.000820795
0.000840134
0.000856652
0.000870883
0.000883117
0.00089373
0.000903093
0.000911434
0.000918869
0.00092549
0.000931405
0.000936735
0.000941577
0.000946009
0.000950075
0.000953804
0.000957226
0.000960366
0.000963254
0.000965916
0.000968384
0.000970677
0.000972819
0.000974821
0.000976701
0.000978463
0.000980121
0.000981678
0.000983143
0.000984519
0.000985816
0.000987036
0.000988187
0.000989272
0.000990299
0.00099127
0.000992191
0.000993064
0.000993898
0.000994691
0.000995452
0.000996177
0.000996878
0.00099755
0.000998203
0.00099883
0.000999448
0.00100004
0.00100064
0.00100121
0.00100179
0.00100236
0.00100294
0.0010035
0.00100401
0.00100438
0.00100479
0.00100515
0.00100556
0.0010059
0.00100633
0.00100666
0.00100712
0.00100742
0.00100792
0.00100821
0.00100876
0.00100905
0.00100964
0.00100995
0.00101063
0.00101097
0.00101178
0.00101218
0.00101326
0.00101383
0.00101535
0.00101679
0.000999774
8.75288e-05
0.00023554
0.000425083
0.000563031
0.00066404
0.000739695
0.000799017
0.000846227
0.000885322
0.000917841
0.000945115
0.000968585
0.000988942
0.00100658
0.00102199
0.00103567
0.00104792
0.0010589
0.00106874
0.00107757
0.00108557
0.00109288
0.00109958
0.00110575
0.00111143
0.00111666
0.00112148
0.00112592
0.00113004
0.00113386
0.00113742
0.00114075
0.00114387
0.00114681
0.00114956
0.00115216
0.0011546
0.0011569
0.00115906
0.0011611
0.00116303
0.00116485
0.00116656
0.00116819
0.00116972
0.00117118
0.00117257
0.00117389
0.00117515
0.00117635
0.0011775
0.00117861
0.00117967
0.0011807
0.00118168
0.00118265
0.00118357
0.00118449
0.00118538
0.00118627
0.00118713
0.00118802
0.00118887
0.00118962
0.00119018
0.00119078
0.00119131
0.00119191
0.00119242
0.00119304
0.00119353
0.00119417
0.00119464
0.00119534
0.00119578
0.00119654
0.00119698
0.00119781
0.00119827
0.0011992
0.0011997
0.00120078
0.00120138
0.00120275
0.00120356
0.00120535
0.00120716
0.00118988
3.52647e-05
0.000152847
0.000362668
0.00053495
0.000665223
0.000764836
0.000843829
0.000907276
0.000960195
0.0010045
0.00104194
0.00107435
0.0011026
0.00112722
0.00114888
0.00116819
0.00118555
0.00120117
0.00121522
0.00122791
0.00123945
0.00125002
0.00125975
0.00126872
0.00127701
0.00128466
0.00129173
0.00129827
0.00130434
0.00131
0.00131528
0.00132023
0.00132487
0.00132924
0.00133336
0.00133723
0.00134088
0.00134433
0.00134758
0.00135064
0.00135354
0.00135627
0.00135886
0.00136131
0.00136363
0.00136584
0.00136794
0.00136994
0.00137184
0.00137366
0.0013754
0.00137708
0.00137868
0.00138023
0.00138171
0.00138316
0.00138455
0.00138593
0.00138725
0.00138858
0.00138985
0.00139115
0.0013924
0.0013935
0.00139432
0.00139517
0.00139595
0.0013968
0.00139755
0.00139841
0.00139914
0.00140002
0.00140072
0.00140165
0.00140232
0.00140333
0.00140398
0.00140509
0.00140574
0.00140698
0.00140769
0.00140909
0.00140991
0.0014116
0.00141267
0.00141475
0.00141684
0.00139962
3.69908e-06
4.7804e-05
0.00025112
0.000461265
0.000626419
0.000754746
0.000858045
0.000941819
0.00101215
0.00107134
0.00112168
0.00116547
0.0012038
0.00123734
0.00126699
0.00129354
0.00131748
0.00133909
0.00135859
0.00137627
0.0013924
0.00140721
0.00142088
0.00143352
0.00144521
0.00145603
0.00146605
0.00147535
0.00148399
0.00149206
0.00149962
0.00150671
0.00151337
0.00151964
0.00152556
0.00153114
0.0015364
0.00154136
0.00154605
0.00155049
0.00155467
0.00155864
0.00156239
0.00156595
0.00156932
0.00157253
0.00157558
0.00157849
0.00158127
0.00158392
0.00158645
0.00158889
0.00159122
0.00159347
0.00159562
0.00159772
0.00159974
0.00160172
0.00160363
0.00160553
0.00160736
0.0016092
0.00161099
0.00161252
0.00161368
0.00161487
0.00161597
0.00161714
0.0016182
0.00161936
0.00162038
0.00162155
0.00162254
0.00162375
0.00162471
0.00162599
0.00162693
0.00162831
0.00162925
0.00163076
0.00163174
0.00163345
0.00163453
0.0016365
0.00163791
0.00164017
0.00164246
0.0016259
1.40313e-07
2.33288e-06
8.39612e-05
0.000325772
0.000530849
0.000693944
0.000826835
0.00093553
0.00102757
0.00110539
0.00117197
0.00123015
0.0012812
0.00132605
0.00136586
0.00140164
0.00143397
0.0014632
0.00148966
0.00151372
0.00153574
0.00155602
0.00157475
0.0015921
0.00160817
0.00162307
0.00163689
0.00164975
0.00166172
0.00167293
0.00168342
0.00169329
0.00170257
0.00171133
0.00171958
0.00172737
0.00173473
0.00174168
0.00174825
0.00175446
0.00176034
0.00176591
0.00177118
0.00177619
0.00178094
0.00178547
0.00178977
0.00179387
0.00179778
0.00180152
0.00180509
0.00180852
0.0018118
0.00181497
0.00181801
0.00182095
0.00182378
0.00182655
0.00182921
0.00183184
0.00183438
0.00183691
0.00183937
0.00184145
0.00184304
0.00184463
0.00184613
0.00184768
0.00184911
0.00185062
0.001852
0.0018535
0.00185483
0.00185635
0.00185765
0.00185921
0.00186049
0.00186212
0.0018634
0.00186514
0.00186647
0.00186837
0.00186982
0.00187193
0.00187369
0.00187603
0.00187845
0.00186327
2.43522e-08
6.72118e-08
1.79458e-06
9.90763e-05
0.000357441
0.000561171
0.000730167
0.000869772
0.000988524
0.00108919
0.00117597
0.00125222
0.00131923
0.00137829
0.00143095
0.0014784
0.00152135
0.00156023
0.00159551
0.00162767
0.00165718
0.00168441
0.0017096
0.00173295
0.00175461
0.0017747
0.00179338
0.00181077
0.00182701
0.00184222
0.00185649
0.00186992
0.00188256
0.00189449
0.00190575
0.00191639
0.00192643
0.00193594
0.00194492
0.00195342
0.00196147
0.0019691
0.00197633
0.0019832
0.00198973
0.00199594
0.00200185
0.00200749
0.00201287
0.00201801
0.00202292
0.00202763
0.00203214
0.00203648
0.00204063
0.00204466
0.00204852
0.00205228
0.00205589
0.00205944
0.00206286
0.00206625
0.00206953
0.00207228
0.00207437
0.00207645
0.00207842
0.0020804
0.00208226
0.00208417
0.00208595
0.00208781
0.00208953
0.00209136
0.00209303
0.00209486
0.0020965
0.00209836
0.0021
0.00210193
0.00210361
0.00210563
0.00210743
0.00210959
0.00211163
0.00211396
0.00211647
0.00210335
1.61448e-08
1.86815e-08
3.70334e-08
9.0816e-07
7.33071e-05
0.000322232
0.000541698
0.000718408
0.000870584
0.000999621
0.00111163
0.00121021
0.00129692
0.00137361
0.00144238
0.00150455
0.00156085
0.00161186
0.00165822
0.0017006
0.00173959
0.00177562
0.00180899
0.00183994
0.00186865
0.00189532
0.00192014
0.00194329
0.00196493
0.00198523
0.0020043
0.00202226
0.00203919
0.00205517
0.00207025
0.0020845
0.00209797
0.00211071
0.00212276
0.00213417
0.00214498
0.00215524
0.00216497
0.00217421
0.002183
0.00219137
0.00219933
0.00220693
0.00221417
0.0022211
0.00222771
0.00223405
0.0022401
0.00224593
0.0022515
0.00225689
0.00226204
0.00226705
0.00227185
0.00227653
0.00228103
0.00228545
0.00228972
0.00229326
0.00229595
0.00229859
0.0023011
0.00230357
0.00230592
0.00230827
0.00231049
0.00231273
0.00231484
0.002317
0.00231904
0.00232114
0.00232312
0.00232519
0.00232715
0.00232922
0.00233119
0.0023333
0.00233534
0.0023375
0.00233972
0.00234193
0.00234448
0.0023339
1.52875e-08
1.54255e-08
1.62427e-08
2.35979e-08
2.24779e-07
2.10612e-05
0.000196746
0.000443225
0.000641682
0.000804399
0.000947927
0.00107491
0.00118622
0.001285
0.00137387
0.00145433
0.00152719
0.00159323
0.00165338
0.00170859
0.00175953
0.00180667
0.00185034
0.00189084
0.00192842
0.00196336
0.0019959
0.0020263
0.00205477
0.00208151
0.00210665
0.00213035
0.00215269
0.00217379
0.0021937
0.00221253
0.00223032
0.00224715
0.00226308
0.00227817
0.00229247
0.00230604
0.00231892
0.00233117
0.00234281
0.00235391
0.00236447
0.00237454
0.00238415
0.00239333
0.00240209
0.00241048
0.0024185
0.00242619
0.00243355
0.00244063
0.00244741
0.00245395
0.00246022
0.00246628
0.00247211
0.00247777
0.00248323
0.00248768
0.00249108
0.00249436
0.00249748
0.00250051
0.0025034
0.00250622
0.00250891
0.00251155
0.00251407
0.00251655
0.00251894
0.0025213
0.00252358
0.00252584
0.00252805
0.00253024
0.00253242
0.00253455
0.00253676
0.00253884
0.00254115
0.00254315
0.00254569
0.00253735
1.52034e-08
1.51041e-08
1.50827e-08
1.52827e-08
1.74683e-08
4.50411e-08
1.00105e-06
4.29843e-05
0.000224739
0.000445317
0.000642772
0.00080739
0.000948068
0.00107403
0.00118878
0.00129269
0.00138638
0.00147118
0.00154865
0.00161991
0.00168577
0.00174678
0.00180328
0.00185565
0.00190424
0.00194945
0.00199162
0.00203111
0.00206817
0.00210303
0.00213584
0.00216678
0.00219595
0.00222349
0.00224948
0.00227405
0.00229727
0.00231924
0.00234003
0.00235974
0.00237842
0.00239617
0.00241301
0.00242904
0.00244428
0.00245881
0.00247264
0.00248584
0.00249842
0.00251044
0.00252191
0.00253288
0.00254335
0.00255337
0.00256294
0.00257212
0.00258088
0.00258929
0.00259733
0.00260505
0.00261244
0.00261955
0.00262636
0.00263185
0.00263602
0.00263999
0.00264376
0.00264736
0.00265078
0.00265406
0.00265718
0.00266017
0.00266301
0.00266575
0.00266837
0.00267089
0.0026733
0.00267563
0.00267787
0.00268003
0.00268215
0.00268415
0.00268619
0.002688
0.00269007
0.00269158
0.00269392
0.00269023
1.52102e-08
1.513e-08
1.50885e-08
1.50039e-08
1.50293e-08
1.54533e-08
1.86866e-08
4.80511e-08
6.70465e-07
1.89794e-05
0.000137446
0.000319533
0.000506339
0.0006825
0.000838007
0.000972772
0.0010915
0.00119892
0.00129797
0.00138995
0.00147522
0.00155404
0.00162678
0.00169401
0.00175635
0.00181441
0.0018687
0.00191959
0.0019674
0.00201242
0.00205483
0.00209482
0.00213251
0.00216808
0.00220163
0.00223334
0.00226329
0.00229164
0.00231848
0.00234394
0.00236808
0.00239103
0.00241282
0.00243359
0.00245335
0.0024722
0.00249015
0.00250728
0.00252361
0.0025392
0.00255407
0.00256827
0.00258182
0.00259477
0.00260711
0.00261889
0.00263011
0.00264081
0.002651
0.00266071
0.00266994
0.00267874
0.00268709
0.00269373
0.00269872
0.00270343
0.00270785
0.00271202
0.00271594
0.00271963
0.00272308
0.00272634
0.00272938
0.00273226
0.00273494
0.00273747
0.00273982
0.00274205
0.00274409
0.00274607
0.00274783
0.00274959
0.00275108
0.00275268
0.00275388
0.00275541
0.00275626
0.0027579
1.52215e-08
1.51704e-08
1.51365e-08
1.50812e-08
1.50462e-08
1.50028e-08
1.50376e-08
1.53592e-08
1.7128e-08
2.68816e-08
1.03339e-07
1.24786e-06
1.75387e-05
0.000106798
0.000243188
0.000390101
0.000542227
0.000691289
0.000830564
0.000956991
0.00107041
0.00117234
0.00126483
0.00134982
0.00142878
0.00150276
0.00157234
0.00163797
0.00169983
0.0017581
0.00181292
0.0018645
0.00191302
0.0019587
0.00200173
0.00204234
0.00208069
0.002117
0.00215139
0.00218403
0.00221502
0.0022445
0.00227254
0.00229924
0.00232465
0.00234889
0.00237198
0.00239401
0.002415
0.00243504
0.00245413
0.00247235
0.0024897
0.00250624
0.00252199
0.002537
0.00255127
0.00256483
0.0025777
0.00258991
0.00260146
0.00261238
0.00262269
0.00263078
0.00263684
0.0026425
0.00264778
0.0026527
0.00265727
0.00266152
0.00266546
0.00266911
0.00267248
0.00267559
0.00267844
0.00268107
0.00268346
0.00268565
0.00268763
0.00268943
0.00269102
0.00269248
0.00269374
0.00269488
0.00269585
0.0026967
0.00269745
0.00270307
1.52291e-08
1.51937e-08
1.51737e-08
1.51351e-08
1.51159e-08
1.50781e-08
1.50598e-08
1.50287e-08
1.50409e-08
1.51001e-08
1.56925e-08
1.69512e-08
2.52643e-08
4.99586e-08
2.57555e-07
1.73884e-06
1.41391e-05
6.59082e-05
0.000155402
0.000256626
0.000364207
0.000476994
0.000592086
0.000706202
0.000816505
0.000921124
0.00101897
0.00110975
0.00119359
0.001271
0.00134254
0.00140891
0.00147072
0.00152856
0.0015829
0.00163417
0.00168266
0.00172869
0.00177242
0.00181406
0.00185373
0.00189155
0.00192761
0.00196202
0.00199482
0.00202611
0.00205593
0.00208436
0.00211143
0.00213722
0.00216176
0.00218512
0.00220733
0.00222844
0.00224848
0.00226749
0.00228551
0.00230258
0.00231871
0.00233392
0.00234825
0.00236168
0.00237426
0.00238403
0.00239129
0.00239801
0.00240421
0.00240993
0.00241518
0.00241998
0.00242437
0.00242836
0.00243197
0.00243522
0.00243814
0.00244072
0.00244301
0.00244499
0.00244672
0.00244816
0.00244939
0.00245034
0.00245115
0.00245167
0.00245212
0.00245225
0.00245269
0.00246302
1.5234e-08
1.52128e-08
1.51947e-08
1.51738e-08
1.51564e-08
1.51371e-08
1.51204e-08
1.51025e-08
1.50853e-08
1.50701e-08
1.50598e-08
1.50676e-08
1.51374e-08
1.52775e-08
1.59016e-08
1.70067e-08
2.08499e-08
2.96621e-08
6.01155e-08
1.7123e-07
6.85071e-07
3.09947e-06
1.27289e-05
3.98675e-05
8.84067e-05
0.000149423
0.000215018
0.000283323
0.000354159
0.00042728
0.000501963
0.000577385
0.00065262
0.000726899
0.000799511
0.000869961
0.000937829
0.00100289
0.00106495
0.00112399
0.00117998
0.00123302
0.00128316
0.00133055
0.00137531
0.00141758
0.0014575
0.00149522
0.00153084
0.00156452
0.00159634
0.00162643
0.00165487
0.00168175
0.00170712
0.00173109
0.00175367
0.00177495
0.00179494
0.00181369
0.0018312
0.00184752
0.00186264
0.00187427
0.00188282
0.00189066
0.00189781
0.00190433
0.00191022
0.00191554
0.00192028
0.00192451
0.00192823
0.00193149
0.00193428
0.00193667
0.00193863
0.00194024
0.00194146
0.0019424
0.00194297
0.00194332
0.00194328
0.00194311
0.00194274
0.00194175
0.00194179
0.00195787
1.52377e-08
1.5224e-08
1.52152e-08
1.52004e-08
1.51923e-08
1.51784e-08
1.51708e-08
1.5158e-08
1.51509e-08
1.51388e-08
1.51313e-08
1.51201e-08
1.51141e-08
1.51068e-08
1.51083e-08
1.51147e-08
1.5141e-08
1.51903e-08
1.53192e-08
1.55512e-08
1.60566e-08
1.70316e-08
1.89958e-08
2.27776e-08
3.04193e-08
4.63881e-08
8.22256e-08
1.67375e-07
3.80289e-07
9.19887e-07
2.263e-06
5.40464e-06
1.20628e-05
2.43545e-05
4.37113e-05
6.97112e-05
0.000100419
0.000133682
0.000168096
0.000203
0.000238159
0.000273536
0.000309067
0.000344755
0.000380454
0.000416146
0.000451621
0.000486869
0.000521648
0.000555979
0.000589608
0.000622595
0.000654681
0.000685963
0.000716185
0.000745474
0.000773557
0.000800373
0.000825853
0.000849947
0.000872594
0.000893738
0.000913338
0.000928349
0.000939345
0.000949364
0.000958436
0.000966609
0.000973917
0.000980403
0.000986108
0.000991066
0.000995326
0.000998913
0.00100188
0.00100426
0.00100609
0.0010074
0.00100824
0.00100863
0.00100853
0.00100821
0.00100744
0.00100664
0.00100505
0.00100391
0.00100163
0.00102052
1.52403e-08
1.52369e-08
1.52312e-08
1.52274e-08
1.52221e-08
1.52187e-08
1.52136e-08
1.52104e-08
1.52056e-08
1.52027e-08
1.51982e-08
1.51955e-08
1.51912e-08
1.51881e-08
1.5184e-08
1.51813e-08
1.51778e-08
1.5176e-08
1.51742e-08
1.51745e-08
1.51763e-08
1.51806e-08