/*--------------------------------*- C++ -*----------------------------------*\
| =========                 |                                                 |
| \\      /  F ield         | OpenFOAM: The Open Source CFD Toolbox           |
|  \\    /   O peration     | Version:  v2006                                 |
|   \\  /    A nd           | Website:  www.openfoam.com                      |
|    \\/     M anipulation  |                                                 |
\*---------------------------------------------------------------------------*/
FoamFile
{
    version     2.0;
    format      ascii;
    class       volScalarField;
    location    "10000";
    object      nut;
}
// * * * * * * * * * * * * * * * * * * * * * * * * * * * * * * * * * * * * * //

dimensions      [0 2 -1 0 0 0 0];


internalField   nonuniform List<scalar> 
20540
(
1.19129e-06
0.00016497
1.21381e-06
0.000165228
1.27056e-06
0.000165812
1.37768e-06
0.000166766
1.55662e-06
0.000168085
1.83323e-06
0.000169668
2.23105e-06
0.000171235
2.7525e-06
0.000172213
3.34306e-06
0.000171833
3.84685e-06
0.000168996
4.00159e-06
0.000162001
3.52936e-06
0.000148474
2.39035e-06
0.000125171
1.0657e-06
8.83145e-05
2.65006e-07
3.85415e-05
4.75118e-08
4.34677e-06
2.1124e-08
2.18643e-07
1.64123e-08
2.79557e-08
1.54758e-08
1.75727e-08
1.52404e-08
1.54781e-08
1.525e-08
1.53215e-08
1.52416e-08
1.52509e-08
1.52441e-08
1.52451e-08
1.52454e-08
1.52451e-08
1.52452e-08
1.52449e-08
1.52449e-08
1.52446e-08
1.52445e-08
1.52443e-08
1.52441e-08
1.52438e-08
1.52436e-08
1.52433e-08
1.5243e-08
1.52425e-08
1.52424e-08
1.52416e-08
1.52417e-08
1.5241e-08
1.52417e-08
1.5241e-08
1.52423e-08
1.52416e-08
1.5243e-08
1.52425e-08
1.52436e-08
1.52432e-08
1.52441e-08
1.52438e-08
1.52445e-08
1.52442e-08
1.52448e-08
1.52446e-08
1.52452e-08
1.52449e-08
1.52454e-08
1.5245e-08
1.5244e-08
1.52449e-08
1.52414e-08
1.52471e-08
1.52413e-08
1.52771e-08
1.52453e-08
1.54141e-08
1.53226e-08
1.61626e-08
1.57471e-08
2.03418e-08
1.82457e-08
7.17195e-08
2.52155e-08
1.1204e-06
1.04462e-07
1.70145e-05
5.27221e-07
6.47741e-05
1.56529e-06
0.000107421
2.84839e-06
0.000136743
3.7293e-06
0.000155018
3.95937e-06
0.000165465
3.6812e-06
0.000170673
3.15559e-06
0.000172551
2.59716e-06
0.000172465
2.12075e-06
0.000171297
1.76136e-06
0.000169724
1.51155e-06
0.000168204
1.34914e-06
0.000166955
1.25122e-06
0.000166057
1.19894e-06
0.000165507
1.17803e-06
0.000165264
1.35734e-08
8.87939e-09
7.63167e-09
6.94314e-09
6.51166e-09
6.2175e-09
6.0045e-09
5.84008e-09
5.71092e-09
5.60715e-09
5.52119e-09
5.44906e-09
5.38801e-09
5.33554e-09
5.2898e-09
5.24968e-09
5.2144e-09
5.18321e-09
5.15541e-09
5.13044e-09
5.1079e-09
5.08749e-09
5.06899e-09
5.05219e-09
5.0369e-09
5.02292e-09
5.0101e-09
4.99831e-09
4.98742e-09
4.97735e-09
4.96801e-09
4.95936e-09
4.95133e-09
4.94388e-09
4.93697e-09
4.93055e-09
4.92458e-09
4.91906e-09
4.91394e-09
4.90922e-09
4.90488e-09
4.90093e-09
4.89736e-09
4.8942e-09
4.89174e-09
4.89067e-09
4.89037e-09
4.88908e-09
4.88957e-09
4.89027e-09
4.8903e-09
4.89387e-09
4.89488e-09
4.89587e-09
4.90102e-09
4.90686e-09
4.91476e-09
4.92476e-09
4.93686e-09
4.95119e-09
4.96823e-09
4.98803e-09
5.01021e-09
5.03181e-09
5.05299e-09
5.07379e-09
5.09602e-09
5.11972e-09
5.14487e-09
5.17151e-09
5.19972e-09
5.2294e-09
5.26089e-09
5.29368e-09
5.3289e-09
5.36487e-09
5.4046e-09
5.44372e-09
5.48955e-09
5.53163e-09
5.58648e-09
5.63266e-09
5.69969e-09
5.7593e-09
5.83593e-09
5.98579e-09
6.03533e-09
7.05129e-09
1.44399e-06
1.05498e-06
8.99737e-07
8.12537e-07
7.57366e-07
7.19611e-07
6.92278e-07
6.71191e-07
6.54638e-07
6.41352e-07
6.30359e-07
6.21148e-07
6.13361e-07
6.06675e-07
6.00855e-07
5.95756e-07
5.91276e-07
5.87319e-07
5.83796e-07
5.80634e-07
5.77782e-07
5.75203e-07
5.72867e-07
5.70747e-07
5.68819e-07
5.67059e-07
5.65446e-07
5.63963e-07
5.62596e-07
5.61332e-07
5.60163e-07
5.5908e-07
5.58077e-07
5.57147e-07
5.56284e-07
5.55485e-07
5.54744e-07
5.54058e-07
5.53424e-07
5.5284e-07
5.52304e-07
5.51816e-07
5.51377e-07
5.50989e-07
5.50959e-07
5.51427e-07
5.51353e-07
5.51011e-07
5.51485e-07
5.50988e-07
5.51062e-07
5.52331e-07
5.51675e-07
5.51498e-07
5.52252e-07
5.52566e-07
5.53397e-07
5.54584e-07
5.56019e-07
5.57715e-07
5.59727e-07
5.62059e-07
5.64581e-07
5.67174e-07
5.69996e-07
5.7246e-07
5.75074e-07
5.77851e-07
5.8079e-07
5.83892e-07
5.87165e-07
5.90594e-07
5.94219e-07
5.97976e-07
6.01988e-07
6.06066e-07
6.10535e-07
6.14914e-07
6.19972e-07
6.24609e-07
6.30485e-07
6.35471e-07
6.42244e-07
6.48432e-07
6.55574e-07
6.67543e-07
6.78183e-07
9.05811e-07
1.89332e-05
1.53715e-05
1.3205e-05
1.19263e-05
1.10963e-05
1.05182e-05
1.00944e-05
9.76384e-06
9.50188e-06
9.28984e-06
9.11309e-06
8.96405e-06
8.8373e-06
8.72788e-06
8.63215e-06
8.54794e-06
8.47365e-06
8.40779e-06
8.34896e-06
8.29601e-06
8.24811e-06
8.20468e-06
8.16525e-06
8.12941e-06
8.09674e-06
8.06686e-06
8.03944e-06
8.01419e-06
7.99088e-06
7.96932e-06
7.94934e-06
7.93082e-06
7.91364e-06
7.89771e-06
7.88293e-06
7.86923e-06
7.85651e-06
7.84474e-06
7.83384e-06
7.82379e-06
7.81456e-06
7.80614e-06
7.79854e-06
7.79177e-06
7.78738e-06
7.78472e-06
7.78034e-06
7.77864e-06
7.78304e-06
7.77945e-06
7.78119e-06
7.78979e-06
7.78788e-06
7.79139e-06
7.8004e-06
7.8107e-06
7.82588e-06
7.84459e-06
7.86722e-06
7.89395e-06
7.92567e-06
7.96233e-06
8.00587e-06
8.0503e-06
8.09047e-06
8.12941e-06
8.17043e-06
8.21387e-06
8.25967e-06
8.30788e-06
8.3585e-06
8.41138e-06
8.46693e-06
8.52433e-06
8.58513e-06
8.64672e-06
8.71339e-06
8.77868e-06
8.85241e-06
8.92042e-06
9.00319e-06
9.07449e-06
9.16397e-06
9.24508e-06
9.35423e-06
9.41628e-06
9.73054e-06
8.82576e-06
5.46728e-05
5.57549e-05
5.35547e-05
5.14252e-05
4.97608e-05
4.84546e-05
4.74231e-05
4.65658e-05
4.58564e-05
4.52605e-05
4.4747e-05
4.43038e-05
4.39196e-05
4.35813e-05
4.32803e-05
4.30121e-05
4.27731e-05
4.25592e-05
4.23661e-05
4.21906e-05
4.20307e-05
4.18847e-05
4.17515e-05
4.16298e-05
4.15184e-05
4.14159e-05
4.13214e-05
4.1234e-05
4.11529e-05
4.10775e-05
4.10075e-05
4.09423e-05
4.08817e-05
4.08253e-05
4.07728e-05
4.0724e-05
4.06785e-05
4.06362e-05
4.05968e-05
4.05603e-05
4.05265e-05
4.04954e-05
4.04669e-05
4.04413e-05
4.04187e-05
4.03996e-05
4.03833e-05
4.03701e-05
4.03647e-05
4.03577e-05
4.03595e-05
4.03679e-05
4.03731e-05
4.03887e-05
4.04133e-05
4.04459e-05
4.04881e-05
4.05405e-05
4.06042e-05
4.068e-05
4.07699e-05
4.08742e-05
4.09956e-05
4.11111e-05
4.12134e-05
4.13206e-05
4.14326e-05
4.15509e-05
4.16742e-05
4.18038e-05
4.19376e-05
4.20777e-05
4.22214e-05
4.23708e-05
4.2524e-05
4.2681e-05
4.28431e-05
4.30058e-05
4.31774e-05
4.33383e-05
4.3529e-05
4.36726e-05
4.38985e-05
4.39539e-05
4.44304e-05
4.35076e-05
4.68319e-05
3.38671e-05
9.41989e-05
0.000105585
0.000106879
0.000105834
0.000104563
0.000103367
0.000102335
0.00010141
0.000100613
9.99184e-05
9.93e-05
9.87559e-05
9.82766e-05
9.78474e-05
9.74598e-05
9.71111e-05
9.67982e-05
9.65161e-05
9.62596e-05
9.60247e-05
9.58092e-05
9.56118e-05
9.54311e-05
9.52657e-05
9.51138e-05
9.49737e-05
9.48441e-05
9.47237e-05
9.46117e-05
9.45074e-05
9.44103e-05
9.43198e-05
9.42356e-05
9.41571e-05
9.4084e-05
9.4016e-05
9.39525e-05
9.38934e-05
9.38383e-05
9.3787e-05
9.37394e-05
9.36955e-05
9.36552e-05
9.36186e-05
9.35851e-05
9.35557e-05
9.35318e-05
9.35109e-05
9.34957e-05
9.34874e-05
9.34843e-05
9.34884e-05
9.34999e-05
9.35187e-05
9.35482e-05
9.35883e-05
9.36399e-05
9.37042e-05
9.37828e-05
9.38768e-05
9.39884e-05
9.4118e-05
9.42678e-05
9.44074e-05
9.45297e-05
9.46618e-05
9.4799e-05
9.49442e-05
9.50938e-05
9.52522e-05
9.54129e-05
9.55833e-05
9.57537e-05
9.59343e-05
9.6113e-05
9.63019e-05
9.64866e-05
9.66808e-05
9.68727e-05
9.70552e-05
9.72804e-05
9.7411e-05
9.77246e-05
9.75995e-05
9.85186e-05
9.63926e-05
0.000102371
8.00448e-05
0.000131407
0.000156033
0.000163537
0.000165204
0.000165398
0.00016505
0.000164554
0.000163968
0.000163401
0.000162863
0.000162345
0.000161872
0.000161442
0.000161045
0.000160677
0.00016034
0.000160034
0.000159756
0.0001595
0.000159262
0.000159042
0.000158839
0.000158653
0.000158482
0.000158325
0.000158179
0.000158043
0.000157917
0.000157799
0.000157689
0.000157586
0.00015749
0.0001574
0.000157317
0.000157239
0.000157167
0.000157099
0.000157037
0.000156978
0.000156923
0.000156872
0.000156826
0.000156782
0.000156743
0.000156707
0.000156675
0.000156649
0.000156626
0.000156609
0.0001566
0.000156594
0.000156598
0.00015661
0.00015663
0.00015666
0.000156701
0.000156753
0.00015682
0.000156901
0.000156998
0.000157112
0.000157246
0.0001574
0.000157543
0.000157667
0.000157802
0.000157942
0.00015809
0.000158241
0.000158402
0.000158562
0.000158736
0.000158903
0.000159087
0.00015926
0.000159451
0.000159626
0.000159823
0.000160004
0.000160178
0.00016041
0.000160503
0.00016087
0.000160578
0.000161825
0.000159099
0.000165718
0.000143871
0.000164
0.00020403
0.000220128
0.000226104
0.000228841
0.000230094
0.00023069
0.000230856
0.000230841
0.00023071
0.000230494
0.000230254
0.000230011
0.000229759
0.000229505
0.000229263
0.000229036
0.000228824
0.000228622
0.00022843
0.000228248
0.000228078
0.000227921
0.000227775
0.00022764
0.000227515
0.000227396
0.000227285
0.00022718
0.000227082
0.00022699
0.000226903
0.000226823
0.000226748
0.000226678
0.000226613
0.000226552
0.000226496
0.000226443
0.000226394
0.000226348
0.000226306
0.000226267
0.000226232
0.000226199
0.000226171
0.000226148
0.000226128
0.000226113
0.000226106
0.000226103
0.000226109
0.000226124
0.000226145
0.000226176
0.000226218
0.000226271
0.000226338
0.000226419
0.000226516
0.000226629
0.000226761
0.000226913
0.000227056
0.000227176
0.000227309
0.000227444
0.000227589
0.000227734
0.000227892
0.000228044
0.000228214
0.00022837
0.00022855
0.000228709
0.000228898
0.000229055
0.000229248
0.000229411
0.000229574
0.000229804
0.000229865
0.000230266
0.000229884
0.000231256
0.000228608
0.000234367
0.000216326
0.000190808
0.000248593
0.000275925
0.000288137
0.000294793
0.000298652
0.0003011
0.000302597
0.00030359
0.000304229
0.000304604
0.000304836
0.000304976
0.000305035
0.000305033
0.000305002
0.000304957
0.0003049
0.000304831
0.000304752
0.000304668
0.000304584
0.000304503
0.000304427
0.000304354
0.000304284
0.000304215
0.000304148
0.000304084
0.000304021
0.000303962
0.000303906
0.000303854
0.000303805
0.00030376
0.000303718
0.000303678
0.000303642
0.000303608
0.000303576
0.000303546
0.000303519
0.000303494
0.000303472
0.000303452
0.000303435
0.000303423
0.000303413
0.000303407
0.000303409
0.000303414
0.000303428
0.000303449
0.000303477
0.000303513
0.000303561
0.000303618
0.00030369
0.000303773
0.000303873
0.000303987
0.000304121
0.000304272
0.000304415
0.000304533
0.000304663
0.000304794
0.000304938
0.000305077
0.000305233
0.000305376
0.000305544
0.000305688
0.000305868
0.000306012
0.000306201
0.00030634
0.000306535
0.000306679
0.000306839
0.000307062
0.00030711
0.000307525
0.000307154
0.000308445
0.000306399
0.000310571
0.000295267
0.000210729
0.000288452
0.000330236
0.000351062
0.000363397
0.000371206
0.000376565
0.000380229
0.00038291
0.000384875
0.000386293
0.000387375
0.00038822
0.000388859
0.000389341
0.000389721
0.000390031
0.000390283
0.000390481
0.000390633
0.000390752
0.000390848
0.00039093
0.000391
0.000391059
0.000391108
0.000391147
0.000391178
0.000391201
0.00039122
0.000391234
0.000391247
0.000391258
0.000391269
0.000391279
0.000391288
0.000391297
0.000391306
0.000391314
0.000391321
0.000391328
0.000391336
0.000391343
0.000391351
0.00039136
0.000391369
0.000391381
0.000391395
0.000391411
0.000391434
0.000391458
0.00039149
0.000391529
0.000391572
0.000391623
0.000391684
0.000391754
0.000391837
0.00039193
0.00039204
0.000392161
0.000392302
0.000392457
0.000392604
0.000392722
0.000392854
0.000392984
0.000393129
0.000393264
0.000393422
0.000393557
0.000393729
0.000393861
0.000394046
0.000394176
0.000394371
0.000394495
0.000394697
0.000394825
0.000394999
0.000395203
0.000395272
0.000395674
0.000395424
0.000396463
0.000395331
0.000397824
0.000383318
0.000222359
0.000321496
0.00038155
0.000413852
0.00043403
0.000447476
0.000457117
0.000464065
0.000469369
0.000473442
0.000476558
0.000479051
0.000481082
0.000482716
0.000484038
0.000485143
0.000486087
0.000486894
0.000487577
0.000488155
0.00048865
0.000489084
0.000489469
0.000489816
0.000490126
0.000490403
0.000490649
0.000490868
0.000491063
0.000491239
0.000491399
0.000491546
0.000491682
0.000491809
0.000491928
0.00049204
0.000492144
0.000492242
0.000492333
0.000492419
0.0004925
0.000492576
0.000492647
0.000492716
0.000492782
0.000492844
0.000492907
0.000492969
0.000493029
0.000493094
0.000493158
0.000493228
0.000493301
0.000493378
0.000493459
0.00049355
0.000493646
0.000493755
0.000493871
0.000494003
0.000494143
0.000494302
0.000494472
0.000494633
0.000494758
0.000494899
0.000495032
0.000495186
0.000495321
0.000495488
0.00049562
0.000495804
0.000495929
0.000496128
0.000496249
0.00049646
0.000496575
0.000496797
0.000496914
0.000497124
0.000497299
0.000497436
0.000497796
0.000497765
0.000498476
0.000498295
0.00049955
0.000484292
0.000223956
0.000344694
0.000427288
0.000474467
0.000505095
0.000526229
0.000541838
0.000553469
0.000562592
0.000569794
0.000575483
0.000580145
0.000584029
0.000587241
0.000589914
0.000592196
0.00059418
0.000595906
0.000597401
0.000598697
0.000599833
0.000600843
0.000601753
0.000602577
0.000603323
0.000603998
0.000604606
0.000605157
0.000605656
0.000606112
0.00060653
0.000606918
0.000607277
0.000607614
0.000607928
0.000608223
0.000608499
0.000608758
0.000609001
0.000609229
0.000609442
0.000609643
0.000609832
0.000610012
0.000610181
0.000610342
0.000610497
0.000610646
0.000610789
0.000610932
0.000611069
0.000611209
0.000611348
0.000611489
0.000611629
0.000611776
0.000611925
0.000612084
0.000612246
0.000612424
0.000612604
0.000612805
0.000613009
0.000613202
0.000613347
0.000613511
0.000613659
0.000613836
0.000613983
0.000614175
0.000614315
0.000614526
0.000614655
0.000614886
0.00061501
0.000615254
0.000615376
0.000615636
0.00061576
0.000616032
0.000616184
0.000616455
0.000616722
0.00061698
0.000617428
0.000618005
0.000618756
0.000601972
0.000213885
0.000354109
0.000463649
0.000529675
0.000573885
0.00060518
0.000628796
0.000646811
0.000661217
0.000672819
0.00068218
0.000689983
0.000696582
0.000702135
0.000706839
0.000710909
0.000714483
0.000717629
0.000720387
0.000722811
0.000724959
0.000726888
0.000728635
0.000730227
0.000731676
0.000732996
0.000734196
0.00073529
0.000736288
0.000737206
0.000738052
0.000738839
0.000739571
0.000740256
0.000740897
0.000741498
0.000742062
0.000742591
0.000743088
0.000743554
0.000743992
0.000744404
0.000744792
0.000745159
0.000745505
0.000745833
0.000746146
0.000746445
0.00074673
0.000747006
0.000747272
0.000747533
0.000747786
0.000748038
0.000748282
0.000748529
0.000748771
0.000749023
0.00074927
0.000749532
0.00074979
0.00075007
0.000750345
0.000750601
0.000750791
0.000751003
0.000751189
0.000751414
0.000751595
0.000751837
0.000752006
0.000752272
0.000752426
0.000752717
0.000752867
0.000753174
0.000753327
0.000753659
0.000753816
0.000754185
0.000754358
0.000754793
0.000755013
0.000755609
0.000755922
0.000757011
0.000757702
0.000739909
0.000189353
0.000345166
0.000485437
0.000574812
0.000636347
0.000680791
0.000714878
0.000741334
0.000762796
0.000780336
0.000794714
0.000806854
0.000817236
0.000826085
0.000833677
0.000840312
0.000846187
0.000851398
0.00085601
0.0008601
0.000863756
0.00086706
0.000870068
0.000872818
0.000875335
0.000877638
0.000879743
0.000881671
0.000883441
0.000885074
0.000886586
0.000887994
0.000889308
0.000890539
0.000891692
0.000892775
0.000893791
0.000894747
0.000895644
0.000896489
0.000897282
0.000898031
0.000898735
0.000899401
0.00090003
0.000900626
0.000901192
0.000901732
0.000902245
0.000902739
0.00090321
0.000903669
0.00090411
0.000904542
0.000904957
0.00090537
0.000905769
0.000906174
0.000906567
0.000906973
0.000907367
0.000907784
0.000908187
0.000908556
0.000908827
0.000909126
0.000909387
0.000909698
0.000909949
0.000910279
0.000910514
0.000910872
0.000911088
0.000911481
0.000911689
0.000912109
0.000912323
0.000912779
0.000913003
0.00091352
0.000913762
0.000914393
0.000914676
0.000915544
0.00091594
0.000917315
0.000918323
0.000900145
0.000148514
0.000312899
0.000485905
0.000603458
0.000686731
0.000747929
0.000795478
0.000832873
0.000863543
0.000888884
0.000909908
0.000927833
0.000943298
0.000956607
0.000968139
0.000978297
0.00098735
0.000995431
0.00100263
0.00100907
0.00101486
0.00102012
0.00102493
0.00102934
0.00103339
0.00103712
0.00104053
0.00104368
0.00104658
0.00104926
0.00105175
0.00105408
0.00105625
0.00105829
0.00106021
0.00106201
0.0010637
0.00106529
0.00106679
0.0010682
0.00106953
0.00107078
0.00107196
0.00107308
0.00107414
0.00107514
0.00107609
0.001077
0.00107786
0.00107869
0.00107947
0.00108023
0.00108096
0.00108167
0.00108235
0.00108303
0.00108367
0.00108432
0.00108494
0.00108557
0.00108618
0.00108682
0.00108743
0.00108798
0.00108839
0.00108883
0.00108921
0.00108966
0.00109004
0.0010905
0.00109086
0.00109136
0.00109169
0.00109223
0.00109254
0.00109314
0.00109345
0.0010941
0.00109443
0.00109516
0.00109552
0.00109639
0.00109682
0.00109797
0.00109856
0.00110018
0.00110163
0.0010831
9.37422e-05
0.000252809
0.000457132
0.000607094
0.000717145
0.000799399
0.000864041
0.000915416
0.000957919
0.000993329
0.00102298
0.00104846
0.00107058
0.00108976
0.00110651
0.00112136
0.00113466
0.00114659
0.00115729
0.0011669
0.00117559
0.00118352
0.0011908
0.0011975
0.00120367
0.00120936
0.0012146
0.00121944
0.00122391
0.00122807
0.00123194
0.00123556
0.00123895
0.00124213
0.00124513
0.00124795
0.0012506
0.0012531
0.00125546
0.00125768
0.00125977
0.00126175
0.00126362
0.00126539
0.00126706
0.00126865
0.00127016
0.0012716
0.00127296
0.00127427
0.00127552
0.00127672
0.00127787
0.00127899
0.00128006
0.00128111
0.00128211
0.00128311
0.00128408
0.00128505
0.00128598
0.00128694
0.00128786
0.00128868
0.00128929
0.00128994
0.00129052
0.00129117
0.00129173
0.00129239
0.00129293
0.00129363
0.00129414
0.00129489
0.00129537
0.00129619
0.00129666
0.00129757
0.00129806
0.00129906
0.0012996
0.00130076
0.00130139
0.00130285
0.0013037
0.0013056
0.00130744
0.00128863
3.51026e-05
0.000162551
0.000388057
0.000575163
0.000717042
0.00082537
0.000911468
0.000980523
0.00103807
0.00108632
0.00112702
0.00116221
0.00119292
0.0012197
0.00124322
0.00126418
0.00128303
0.00130001
0.00131529
0.00132909
0.00134162
0.00135309
0.00136365
0.0013734
0.0013824
0.00139073
0.00139841
0.00140553
0.00141214
0.00141828
0.00142402
0.0014294
0.00143444
0.00143919
0.00144365
0.00144787
0.00145183
0.00145558
0.00145911
0.00146245
0.0014656
0.00146858
0.00147139
0.00147406
0.00147659
0.00147899
0.00148127
0.00148345
0.00148551
0.0014875
0.00148938
0.0014912
0.00149294
0.00149463
0.00149624
0.00149781
0.00149932
0.00150082
0.00150225
0.00150369
0.00150508
0.00150649
0.00150785
0.00150903
0.00150992
0.00151085
0.0015117
0.00151262
0.00151344
0.00151437
0.00151515
0.00151612
0.00151687
0.00151788
0.00151861
0.0015197
0.0015204
0.0015216
0.0015223
0.00152363
0.00152439
0.00152589
0.00152676
0.00152856
0.00152968
0.00153189
0.00153403
0.00151531
3.10088e-06
4.72306e-05
0.000265459
0.000493375
0.000673217
0.000812792
0.000925402
0.00101659
0.00109309
0.00115755
0.00121227
0.00125984
0.0013015
0.00133798
0.00137019
0.00139901
0.001425
0.00144848
0.00146969
0.0014889
0.00150642
0.00152251
0.00153734
0.00155107
0.00156377
0.00157553
0.00158643
0.00159654
0.00160594
0.00161471
0.00162292
0.00163062
0.00163785
0.00164467
0.00165109
0.00165715
0.00166286
0.00166826
0.00167336
0.00167819
0.00168274
0.00168706
0.00169114
0.00169501
0.00169868
0.00170218
0.00170549
0.00170866
0.00171167
0.00171455
0.0017173
0.00171995
0.00172248
0.00172492
0.00172726
0.00172954
0.00173173
0.00173389
0.00173595
0.00173801
0.00174
0.001742
0.00174394
0.0017456
0.00174686
0.00174815
0.00174935
0.00175061
0.00175176
0.00175302
0.00175412
0.0017554
0.00175646
0.00175778
0.00175881
0.0017602
0.00176121
0.0017627
0.00176371
0.00176534
0.00176637
0.00176821
0.00176935
0.00177147
0.00177293
0.00177535
0.0017777
0.00175972
1.12424e-07
1.90267e-06
8.54836e-05
0.000344102
0.000567271
0.000744708
0.000889683
0.00100799
0.00110813
0.00119288
0.00126526
0.00132846
0.00138397
0.00143274
0.00147599
0.00151482
0.00154993
0.0015817
0.00161047
0.00163662
0.00166053
0.00168254
0.00170288
0.00172172
0.00173918
0.00175538
0.00177041
0.00178438
0.0017974
0.00180957
0.00182097
0.00183168
0.00184176
0.00185127
0.00186023
0.00186869
0.00187669
0.00188424
0.00189138
0.00189814
0.00190453
0.00191059
0.00191633
0.00192178
0.00192695
0.00193186
0.00193654
0.001941
0.00194525
0.00194931
0.00195319
0.00195692
0.00196048
0.00196392
0.00196721
0.00197041
0.00197348
0.00197648
0.00197937
0.00198222
0.00198498
0.00198773
0.00199039
0.00199265
0.00199437
0.0019961
0.00199773
0.0019994
0.00200095
0.00200259
0.00200408
0.00200571
0.00200715
0.00200879
0.00201019
0.00201187
0.00201325
0.00201501
0.00201639
0.00201826
0.00201968
0.00202172
0.00202326
0.00202551
0.00202736
0.00202987
0.00203238
0.00201591
2.28423e-08
5.71054e-08
1.5336e-06
0.000101433
0.000375992
0.000597936
0.000782427
0.000934356
0.00106365
0.00117329
0.0012676
0.00135046
0.00142335
0.00148758
0.00154477
0.00159629
0.00164293
0.0016852
0.00172355
0.0017585
0.00179054
0.00182009
0.00184744
0.0018728
0.00189633
0.00191817
0.00193847
0.00195738
0.00197503
0.00199154
0.00200704
0.00202162
0.00203535
0.0020483
0.00206053
0.00207208
0.00208299
0.00209332
0.00210308
0.00211233
0.00212108
0.00212938
0.00213724
0.00214472
0.00215181
0.00215857
0.00216499
0.00217112
0.00217696
0.00218254
0.00218787
0.00219299
0.00219788
0.00220259
0.0022071
0.00221147
0.00221566
0.00221974
0.00222366
0.00222751
0.00223122
0.0022349
0.00223845
0.00224143
0.0022437
0.00224595
0.00224808
0.00225023
0.00225225
0.00225432
0.00225624
0.00225826
0.00226011
0.00226209
0.00226389
0.00226587
0.00226764
0.00226965
0.00227141
0.00227348
0.00227527
0.00227745
0.00227935
0.00228168
0.00228382
0.00228632
0.00228894
0.00227472
1.60204e-08
1.81581e-08
3.35453e-08
7.91508e-07
7.40415e-05
0.000334273
0.000575093
0.000767193
0.000932976
0.00107354
0.00119529
0.00130246
0.00139681
0.00148019
0.00155486
0.00162237
0.00168355
0.00173901
0.0017894
0.00183544
0.00187777
0.00191688
0.00195312
0.00198673
0.00201793
0.00204692
0.00207389
0.00209905
0.00212256
0.0021446
0.00216531
0.00218481
0.00220318
0.00222053
0.00223691
0.00225239
0.00226702
0.00228087
0.00229397
0.00230638
0.00231813
0.00232928
0.00233985
0.00234991
0.00235945
0.00236855
0.0023772
0.00238545
0.00239332
0.00240084
0.00240802
0.0024149
0.00242147
0.0024278
0.00243384
0.00243969
0.00244528
0.00245071
0.00245592
0.002461
0.00246588
0.00247068
0.00247531
0.00247914
0.00248206
0.00248491
0.00248763
0.00249031
0.00249286
0.0024954
0.0024978
0.00250022
0.00250251
0.00250484
0.00250703
0.0025093
0.00251144
0.00251367
0.00251578
0.00251801
0.00252012
0.00252238
0.00252456
0.00252687
0.00252923
0.00253159
0.00253428
0.00252283
1.52788e-08
1.53929e-08
1.60782e-08
2.25031e-08
1.98641e-07
1.9945e-05
0.000197832
0.00046366
0.000681256
0.000858481
0.00101433
0.00115255
0.00127375
0.00138112
0.00147763
0.00156505
0.00164427
0.00171608
0.00178145
0.00184139
0.00189669
0.00194787
0.0019953
0.00203931
0.00208016
0.00211813
0.00215349
0.00218652
0.00221743
0.00224646
0.00227376
0.00229949
0.00232374
0.00234665
0.00236828
0.00238873
0.00240806
0.00242635
0.00244366
0.00246007
0.00247561
0.00249037
0.00250437
0.00251768
0.00253033
0.00254238
0.00255384
0.00256479
0.00257522
0.00258519
0.0025947
0.00260381
0.0026125
0.00262085
0.00262884
0.00263652
0.00264388
0.00265097
0.00265778
0.00266436
0.00267068
0.00267682
0.00268274
0.00268757
0.00269124
0.0026948
0.00269818
0.00270147
0.00270459
0.00270765
0.00271056
0.00271341
0.00271613
0.00271882
0.0027214
0.00272395
0.0027264
0.00272884
0.00273122
0.00273357
0.00273591
0.0027382
0.00274056
0.00274279
0.00274526
0.00274739
0.0027501
0.00274111
1.5207e-08
1.51209e-08
1.50866e-08
1.52508e-08
1.71824e-08
4.13963e-08
8.44784e-07
4.13794e-05
0.000226468
0.000462438
0.000678011
0.000858395
0.00101171
0.00114844
0.00127302
0.00138605
0.00148803
0.00158026
0.00166442
0.0017418
0.0018133
0.00187955
0.00194095
0.00199788
0.00205071
0.00209984
0.00214566
0.00218853
0.00222876
0.0022666
0.00230222
0.00233581
0.00236748
0.0023974
0.00242564
0.00245233
0.00247757
0.00250144
0.00252404
0.00254547
0.00256577
0.00258505
0.00260336
0.00262077
0.00263732
0.00265309
0.00266811
0.00268244
0.0026961
0.00270915
0.0027216
0.00273351
0.00274487
0.00275575
0.00276613
0.00277609
0.0027856
0.00279472
0.00280344
0.00281182
0.00281983
0.00282754
0.00283492
0.00284087
0.00284538
0.00284969
0.00285377
0.00285767
0.00286137
0.00286491
0.00286828
0.00287151
0.00287458
0.00287754
0.00288035
0.00288307
0.00288567
0.00288817
0.00289058
0.0028929
0.00289517
0.0028973
0.00289949
0.00290141
0.00290363
0.00290521
0.00290772
0.0029039
1.52131e-08
1.51407e-08
1.51016e-08
1.50213e-08
1.50411e-08
1.54066e-08
1.82344e-08
4.39886e-08
5.71259e-07
1.7509e-05
0.000135026
0.00032556
0.000525205
0.000716581
0.000886774
0.00103435
0.0011639
0.00128066
0.0013881
0.00148788
0.0015805
0.0016662
0.00174535
0.00181849
0.00188628
0.00194937
0.00200832
0.00206359
0.00211548
0.00216434
0.00221038
0.0022538
0.00229475
0.0023334
0.00236987
0.00240434
0.0024369
0.00246771
0.00249688
0.00252454
0.00255078
0.0025757
0.00259938
0.00262191
0.00264337
0.00266383
0.00268331
0.0027019
0.00271963
0.00273655
0.00275269
0.00276811
0.00278281
0.00279687
0.00281027
0.00282305
0.00283523
0.00284685
0.00285791
0.00286845
0.00287847
0.00288802
0.00289709
0.00290429
0.00290971
0.00291481
0.00291961
0.00292413
0.00292838
0.00293237
0.00293612
0.00293965
0.00294294
0.00294606
0.00294895
0.00295169
0.00295423
0.00295664
0.00295885
0.00296098
0.00296288
0.00296477
0.00296638
0.0029681
0.00296939
0.00297103
0.00297193
0.00297371
1.52234e-08
1.51752e-08
1.51472e-08
1.50947e-08
1.50642e-08
1.50215e-08
1.505e-08
1.53311e-08
1.6889e-08
2.55411e-08
9.05426e-08
1.07069e-06
1.59888e-05
0.000103594
0.00024431
0.000398424
0.000560485
0.000721265
0.00087277
0.00101098
0.00113517
0.00124672
0.0013477
0.00144025
0.00152604
0.00160631
0.00168176
0.00175293
0.00182004
0.00188331
0.00194289
0.00199897
0.00205174
0.00210144
0.00214825
0.00219242
0.00223413
0.00227359
0.00231096
0.00234641
0.00238006
0.00241207
0.00244251
0.00247149
0.00249908
0.00252538
0.00255044
0.00257435
0.00259713
0.00261888
0.0026396
0.00265937
0.00267821
0.00269617
0.00271327
0.00272957
0.00274506
0.00275979
0.00277377
0.00278703
0.00279958
0.00281144
0.00282263
0.00283142
0.002838
0.00284415
0.00284987
0.00285521
0.00286017
0.00286478
0.00286905
0.00287301
0.00287666
0.00288003
0.00288312
0.00288597
0.00288855
0.00289092
0.00289305
0.002895
0.00289672
0.00289828
0.00289964
0.00290086
0.00290191
0.00290282
0.00290362
0.00290987
1.52304e-08
1.5198e-08
1.51797e-08
1.51444e-08
1.5127e-08
1.50923e-08
1.50763e-08
1.50465e-08
1.50517e-08
1.51544e-08
1.53977e-08
1.75189e-08
2.182e-08
5.326e-08
1.98135e-07
1.57565e-06
1.245e-05
6.23925e-05
0.000153124
0.000257403
0.000369404
0.000488125
0.000610471
0.000732796
0.000851843
0.000965362
0.00107196
0.00117113
0.00126286
0.0013476
0.0014259
0.00149849
0.001566
0.00162908
0.00168826
0.00174402
0.00179671
0.00184667
0.00189412
0.00193927
0.00198227
0.00202328
0.00206236
0.00209967
0.00213525
0.0021692
0.00220156
0.00223242
0.00226182
0.00228984
0.00231651
0.0023419
0.00236604
0.002389
0.00241079
0.00243147
0.00245107
0.00246963
0.00248717
0.00250372
0.0025193
0.00253391
0.00254759
0.00255821
0.00256611
0.00257341
0.00258015
0.00258636
0.00259206
0.00259728
0.00260205
0.00260638
0.0026103
0.00261382
0.00261699
0.00261978
0.00262227
0.00262441
0.00262628
0.00262784
0.00262917
0.0026302
0.00263107
0.00263163
0.00263211
0.00263223
0.00263271
0.00264407
1.52349e-08
1.52156e-08
1.5199e-08
1.518e-08
1.51641e-08
1.51465e-08
1.51312e-08
1.5115e-08
1.50991e-08
1.50854e-08
1.50751e-08
1.50869e-08
1.51199e-08
1.53325e-08
1.56916e-08
1.70795e-08
1.97396e-08
2.87528e-08
5.34204e-08
1.47924e-07
5.78386e-07
2.63286e-06
1.11869e-05
3.66574e-05
8.4557e-05
0.00014635
0.000213478
0.000283787
0.000357185
0.000433441
0.000511831
0.000591454
0.000671306
0.000750519
0.000828286
0.000904024
0.000977227
0.00104761
0.00111492
0.00117909
0.00124005
0.00129789
0.00135263
0.00140443
0.00145337
0.00149963
0.00154331
0.0015846
0.0016236
0.00166046
0.00169528
0.00172821
0.0017593
0.00178869
0.00181642
0.0018426
0.00186726
0.00189048
0.00191228
0.00193273
0.00195181
0.00196959
0.00198605
0.00199871
0.00200801
0.00201655
0.00202432
0.00203141
0.00203781
0.00204358
0.00204874
0.00205334
0.00205737
0.00206091
0.00206393
0.00206652
0.00206864
0.00207039
0.00207171
0.00207272
0.00207333
0.0020737
0.00207366
0.00207346
0.00207306
0.00207197
0.00207199
0.0020895
1.52388e-08
1.52276e-08
1.52201e-08
1.52079e-08
1.5201e-08
1.51897e-08
1.51832e-08
1.51727e-08
1.51666e-08
1.51567e-08
1.51501e-08
1.51409e-08
1.51356e-08
1.51298e-08
1.51306e-08
1.51382e-08
1.51551e-08
1.52102e-08
1.53081e-08
1.55339e-08
1.59548e-08
1.68905e-08
1.85061e-08
2.21819e-08
2.82293e-08
4.27758e-08
7.21947e-08
1.45508e-07
3.20728e-07
7.7815e-07
1.90615e-06
4.63688e-06
1.05141e-05
2.18269e-05
4.01119e-05
6.55572e-05
9.60731e-05
0.000129704
0.000164582
0.00020023
0.000236118
0.000272447
0.000308931
0.000345787
0.000382668
0.000419749
0.000456614
0.000493438
0.000529774
0.000565821
0.000601124
0.000635916
0.000669741
0.00070287
0.000734848
0.000765978
0.000795787
0.000824388
0.000851515
0.000877295
0.000901471
0.000924164
0.000945137
0.000961296
0.000973083
0.000983892
0.000993629
0.00100247
0.00101032
0.00101736
0.00102349
0.00102889
0.00103348
0.00103741
0.00104061
0.00104323
0.00104521
0.00104669
0.00104761
0.00104811
0.00104802
0.0010477
0.00104692
0.00104609
0.00104443
0.00104323
0.00104079
0.00106117
1.52412e-08
1.52383e-08
1.52341e-08
1.5231e-08
1.5227e-08
1.52241e-08
1.52203e-08
1.52177e-08
1.52141e-08
1.52116e-08
1.52082e-08
1.52059e-08
1.52027e-08
1.52002e-08
1.5197e-08
1.51948e-08
1.51921e-08
1.51906e-08
1.51892e-08
1.51895e-08
1.51909e-08
1.51952e-08
1.52031e-08
1.52218e-08
1.52482e-08
1.53048e-08
1.53761e-08
1.55248e-08