/*--------------------------------*- C++ -*----------------------------------*\
| =========                 |                                                 |
| \\      /  F ield         | OpenFOAM: The Open Source CFD Toolbox           |
|  \\    /   O peration     | Version:  v2006                                 |
|   \\  /    A nd           | Website:  www.openfoam.com                      |
|    \\/     M anipulation  |                                                 |
\*---------------------------------------------------------------------------*/
FoamFile
{
    version     2.0;
    format      ascii;
    class       volScalarField;
    location    "10000";
    object      nut;
}
// * * * * * * * * * * * * * * * * * * * * * * * * * * * * * * * * * * * * * //

dimensions      [0 2 -1 0 0 0 0];


internalField   nonuniform List<scalar> 
20540
(
1.11819e-06
0.000160387
1.13856e-06
0.000160637
1.1899e-06
0.000161203
1.28687e-06
0.000162131
1.44897e-06
0.000163417
1.69983e-06
0.000164969
2.0615e-06
0.000166524
2.53779e-06
0.000167543
3.08185e-06
0.000167257
3.55442e-06
0.000164608
3.71533e-06
0.000157952
3.30408e-06
0.000144997
2.27029e-06
0.000122618
1.03971e-06
8.72065e-05
2.70401e-07
3.92476e-05
4.99392e-08
4.78138e-06
2.12976e-08
2.45336e-07
1.65383e-08
2.94246e-08
1.57122e-08
1.72779e-08
1.52753e-08
1.54289e-08
1.52622e-08
1.53046e-08
1.52429e-08
1.52495e-08
1.52444e-08
1.5245e-08
1.52455e-08
1.52451e-08
1.52452e-08
1.52449e-08
1.52449e-08
1.52446e-08
1.52446e-08
1.52443e-08
1.52442e-08
1.52438e-08
1.52437e-08
1.52433e-08
1.5243e-08
1.52425e-08
1.52424e-08
1.52416e-08
1.52417e-08
1.5241e-08
1.52417e-08
1.5241e-08
1.52424e-08
1.52416e-08
1.5243e-08
1.52424e-08
1.52436e-08
1.52432e-08
1.52441e-08
1.52438e-08
1.52445e-08
1.52442e-08
1.52449e-08
1.52446e-08
1.52452e-08
1.52449e-08
1.52455e-08
1.5245e-08
1.52441e-08
1.52449e-08
1.52417e-08
1.52466e-08
1.52411e-08
1.52795e-08
1.52425e-08
1.54183e-08
1.53344e-08
1.62065e-08
1.57201e-08
2.06657e-08
1.83195e-08
7.86855e-08
2.57579e-08
1.26008e-06
1.08739e-07
1.79757e-05
5.25738e-07
6.44978e-05
1.50651e-06
0.00010555
2.68669e-06
0.000133741
3.4782e-06
0.000151286
3.66794e-06
0.000161278
3.39693e-06
0.000166218
2.90732e-06
0.000167952
2.39438e-06
0.000167796
1.95994e-06
0.000166602
1.63353e-06
0.000165045
1.40712e-06
0.000163554
1.26007e-06
0.000162337
1.17148e-06
0.000161464
1.1242e-06
0.000160931
1.1053e-06
0.000160695
1.17085e-08
7.64353e-09
6.60174e-09
6.03183e-09
5.67762e-09
5.43836e-09
5.26623e-09
5.13424e-09
5.03127e-09
4.94899e-09
4.8812e-09
4.82464e-09
4.77698e-09
4.73617e-09
4.70074e-09
4.6698e-09
4.64268e-09
4.61877e-09
4.59958e-09
1.53508e-08
1.52578e-08
1.51625e-08
1.50749e-08
1.49953e-08
1.49225e-08
1.48559e-08
1.47946e-08
1.4738e-08
1.46857e-08
1.46373e-08
1.45923e-08
1.45506e-08
1.45118e-08
1.44758e-08
1.44423e-08
1.44112e-08
1.43823e-08
1.43555e-08
1.43248e-08
1.4295e-08
1.42796e-08
1.42608e-08
1.42313e-08
1.42206e-08
1.42128e-08
1.41935e-08
1.41764e-08
1.41443e-08
4.4054e-09
4.4006e-09
4.40857e-09
4.40462e-09
4.40343e-09
4.40872e-09
4.40926e-09
4.4131e-09
4.41961e-09
4.42681e-09
4.43676e-09
4.44813e-09
4.4605e-09
4.47604e-09
4.49243e-09
4.50873e-09
4.52696e-09
4.54334e-09
4.56092e-09
4.57969e-09
4.59967e-09
4.62086e-09
4.64337e-09
4.66708e-09
4.69234e-09
4.71869e-09
4.74709e-09
4.77617e-09
4.80843e-09
4.84028e-09
4.87782e-09
4.91239e-09
4.95785e-09
4.99616e-09
5.05288e-09
5.10325e-09
5.17155e-09
5.31618e-09
5.3403e-09
6.26699e-09
1.24247e-06
8.97259e-07
7.67029e-07
6.95054e-07
6.50086e-07
6.197e-07
5.97893e-07
5.8121e-07
5.68216e-07
5.57848e-07
5.49318e-07
5.42208e-07
5.36222e-07
5.311e-07
5.26655e-07
5.22774e-07
5.19374e-07
5.16375e-07
5.14048e-07
9.37597e-07
9.33303e-07
9.28274e-07
9.23645e-07
9.19429e-07
9.15579e-07
9.12052e-07
9.08807e-07
9.05813e-07
9.03043e-07
9.00476e-07
8.98092e-07
8.95878e-07
8.9382e-07
8.91908e-07
8.90129e-07
8.88474e-07
8.86935e-07
8.85505e-07
8.83476e-07
8.81446e-07
8.80992e-07
8.79981e-07
8.78126e-07
8.77996e-07
8.77289e-07
8.75732e-07
8.7511e-07
8.74399e-07
4.9214e-07
4.89949e-07
4.91539e-07
4.90611e-07
4.90304e-07
4.90902e-07
4.90565e-07
4.9105e-07
4.91871e-07
4.92645e-07
4.94015e-07
4.9544e-07
4.96701e-07
4.98593e-07
5.00522e-07
5.02611e-07
5.05187e-07
5.072e-07
5.09337e-07
5.1161e-07
5.14018e-07
5.1656e-07
5.19248e-07
5.22066e-07
5.25052e-07
5.28149e-07
5.3147e-07
5.34848e-07
5.3857e-07
5.4222e-07
5.46478e-07
5.50378e-07
5.55399e-07
5.59654e-07
5.65603e-07
5.71113e-07
5.78868e-07
6.0369e-07
5.98363e-07
8.11873e-07
1.64783e-05
1.31094e-05
1.12244e-05
1.01306e-05
9.42537e-06
8.93693e-06
8.57963e-06
8.30172e-06
8.08207e-06
7.90453e-06
7.75682e-06
7.63253e-06
7.52697e-06
7.43592e-06
7.35636e-06
7.28646e-06
7.22487e-06
7.1703e-06
7.12197e-06
8.1219e-06
8.08812e-06
8.04993e-06
8.01431e-06
7.98184e-06
7.95217e-06
7.92498e-06
7.89994e-06
7.87683e-06
7.85542e-06
7.83556e-06
7.81712e-06
7.79998e-06
7.78403e-06
7.76919e-06
7.75537e-06
7.74251e-06
7.73052e-06
7.71938e-06
7.70724e-06
7.6961e-06
7.68886e-06
7.68019e-06
7.67103e-06
7.66581e-06
7.65929e-06
7.65267e-06
7.64812e-06
7.64382e-06
6.6762e-06
6.65657e-06
6.66481e-06
6.66189e-06
6.66248e-06
6.6674e-06
6.67172e-06
6.68171e-06
6.69465e-06
6.7095e-06
6.7287e-06
6.75115e-06
6.77698e-06
6.80784e-06
6.84419e-06
6.88169e-06
6.91646e-06
6.94935e-06
6.98399e-06
7.02068e-06
7.05939e-06
7.10015e-06
7.14298e-06
7.18774e-06
7.2348e-06
7.28345e-06
7.33505e-06
7.38735e-06
7.44407e-06
7.49962e-06
7.56256e-06
7.6206e-06
7.69153e-06
7.75262e-06
7.82989e-06
7.90037e-06
7.99855e-06
8.09023e-06
8.30385e-06
7.70035e-06
4.98275e-05
5.03643e-05
4.82207e-05
4.61928e-05
4.46156e-05
4.33838e-05
4.24113e-05
4.16048e-05
4.09389e-05
4.03797e-05
3.98987e-05
3.94844e-05
3.91254e-05
3.88096e-05
3.85289e-05
3.82791e-05
3.80566e-05
3.78576e-05
3.76773e-05
3.7968e-05
3.78253e-05
3.76901e-05
3.75666e-05
3.74538e-05
3.73505e-05
3.72555e-05
3.71678e-05
3.70867e-05
3.70114e-05
3.69415e-05
3.68766e-05
3.68161e-05
3.67599e-05
3.67076e-05
3.66589e-05
3.66136e-05
3.65713e-05
3.65321e-05
3.64946e-05
3.64599e-05
3.64294e-05
3.64002e-05
3.63729e-05
3.63498e-05
3.63283e-05
3.6309e-05
3.62932e-05
3.62808e-05
3.58414e-05
3.58229e-05
3.58278e-05
3.58271e-05
3.5834e-05
3.58509e-05
3.58726e-05
3.59035e-05
3.59432e-05
3.59919e-05
3.60516e-05
3.61226e-05
3.62066e-05
3.63043e-05
3.64179e-05
3.65264e-05
3.66228e-05
3.67233e-05
3.68283e-05
3.69392e-05
3.70547e-05
3.71762e-05
3.73017e-05
3.74331e-05
3.7568e-05
3.77081e-05
3.78519e-05
3.79993e-05
3.81516e-05
3.83043e-05
3.84656e-05
3.86172e-05
3.87954e-05
3.89319e-05
3.91402e-05
3.92012e-05
3.96247e-05
3.88304e-05
4.17638e-05
3.01519e-05
8.78526e-05
9.81252e-05
9.92781e-05
9.82396e-05
9.70004e-05
9.58427e-05
9.48416e-05
9.39463e-05
9.31754e-05
9.25035e-05
9.1906e-05
9.1381e-05
9.09185e-05
9.05043e-05
9.01305e-05
8.97946e-05
8.94933e-05
8.92216e-05
8.89744e-05
8.87157e-05
8.85085e-05
8.83185e-05
8.81453e-05
8.79868e-05
8.78413e-05
8.77071e-05
8.7583e-05
8.74677e-05
8.73605e-05
8.72608e-05
8.7168e-05
8.70816e-05
8.70012e-05
8.69264e-05
8.68567e-05
8.67919e-05
8.67315e-05
8.66752e-05
8.66227e-05
8.65739e-05
8.6529e-05
8.64873e-05
8.64489e-05
8.64147e-05
8.63836e-05
8.63563e-05
8.6333e-05
8.63138e-05
8.63235e-05
8.63137e-05
8.63115e-05
8.63131e-05
8.63227e-05
8.63431e-05
8.63724e-05
8.6411e-05
8.64609e-05
8.65233e-05
8.65994e-05
8.66903e-05
8.67983e-05
8.69237e-05
8.70684e-05
8.72035e-05
8.7322e-05
8.74496e-05
8.75822e-05
8.77224e-05
8.78668e-05
8.80196e-05
8.81748e-05
8.83392e-05
8.85035e-05
8.86777e-05
8.88501e-05
8.9032e-05
8.921e-05
8.93971e-05
8.95813e-05
8.97581e-05
8.99716e-05
9.00991e-05
9.03936e-05
9.02848e-05
9.11305e-05
8.91451e-05
9.47455e-05
7.34019e-05
0.000124149
0.000147173
0.000154346
0.000155928
0.0001561
0.00015576
0.000155273
0.0001547
0.000154148
0.000153621
0.000153117
0.000152657
0.000152239
0.000151852
0.000151494
0.000151166
0.00015087
0.000150599
0.00015035
0.000150033
0.000149818
0.000149621
0.00014944
0.000149274
0.000149122
0.00014898
0.000148849
0.000148726
0.000148612
0.000148505
0.000148405
0.000148313
0.000148226
0.000148146
0.000148071
0.000148001
0.000147936
0.000147875
0.000147819
0.000147766
0.000147718
0.000147673
0.000147631
0.000147594
0.00014756
0.00014753
0.000147505
0.000147483
0.000147546
0.000147538
0.000147533
0.000147536
0.000147545
0.000147566
0.000147596
0.000147637
0.000147688
0.000147753
0.000147832
0.000147927
0.000148038
0.000148169
0.000148319
0.000148459
0.000148579
0.000148711
0.000148847
0.000148991
0.000149138
0.000149295
0.000149451
0.000149619
0.000149782
0.00014996
0.000150127
0.000150313
0.000150483
0.000150673
0.000150847
0.000151018
0.000151237
0.00015133
0.000151676
0.000151405
0.000152574
0.000149975
0.000156302
0.000134992
0.00015615
0.000193986
0.000209485
0.000215231
0.000217866
0.00021908
0.000219653
0.000219811
0.000219796
0.000219667
0.000219457
0.000219226
0.00021899
0.000218745
0.000218499
0.000218265
0.000218045
0.00021784
0.000217644
0.000217412
0.000217235
0.000217069
0.000216917
0.000216777
0.000216646
0.000216525
0.00021641
0.000216303
0.000216201
0.000216106
0.000216017
0.000215934
0.000215856
0.000215784
0.000215717
0.000215654
0.000215596
0.000215541
0.00021549
0.000215443
0.000215399
0.000215359
0.000215321
0.000215287
0.000215257
0.000215231
0.000215208
0.000215189
0.000215221
0.000215214
0.000215212
0.000215217
0.000215228
0.00021525
0.000215281
0.000215322
0.000215375
0.00021544
0.000215519
0.000215613
0.000215723
0.000215852
0.000215999
0.000216138
0.000216255
0.000216383
0.000216514
0.000216655
0.000216796
0.000216949
0.000217096
0.00021726
0.000217411
0.000217586
0.000217739
0.000217921
0.000218073
0.00021826
0.000218415
0.000218574
0.00021879
0.000218851
0.000219229
0.00021887
0.000220165
0.00021763
0.000223164
0.000205559
0.000182589
0.00023741
0.000263747
0.000275491
0.000281897
0.000285626
0.000287984
0.000289428
0.000290389
0.000291004
0.000291366
0.000291593
0.000291729
0.000291786
0.000291785
0.000291757
0.000291715
0.000291661
0.000291594
0.0002915
0.000291418
0.000291337
0.00029126
0.000291187
0.000291118
0.00029105
0.000290984
0.00029092
0.000290858
0.000290798
0.000290741
0.000290688
0.000290638
0.000290592
0.000290549
0.000290508
0.000290471
0.000290436
0.000290403
0.000290373
0.000290345
0.000290319
0.000290295
0.000290274
0.000290256
0.00029024
0.000290228
0.000290219
0.000290235
0.000290236
0.000290242
0.000290254
0.000290272
0.000290299
0.000290336
0.000290382
0.000290439
0.000290508
0.000290589
0.000290685
0.000290796
0.000290925
0.000291071
0.000291209
0.000291323
0.000291449
0.000291576
0.000291714
0.000291848
0.000291999
0.000292136
0.000292299
0.000292437
0.00029261
0.000292748
0.00029293
0.000293063
0.00029325
0.000293386
0.000293542
0.00029375
0.000293798
0.000294189
0.000293839
0.000295062
0.000293101
0.000297121
0.000282268
0.000202349
0.000276237
0.000316455
0.00033646
0.000348313
0.000355837
0.000360991
0.000364519
0.000367104
0.000368994
0.000370361
0.000371407
0.000372223
0.000372838
0.000373304
0.000373672
0.000373974
0.000374218
0.000374408
0.00037455
0.000374665
0.000374759
0.000374838
0.000374907
0.000374965
0.000375013
0.000375051
0.000375081
0.000375104
0.000375122
0.000375137
0.00037515
0.000375162
0.000375173
0.000375183
0.000375193
0.000375202
0.000375211
0.000375219
0.000375226
0.000375234
0.000375241
0.000375248
0.000375257
0.000375266
0.000375276
0.000375287
0.000375301
0.000375326
0.000375347
0.000375372
0.000375402
0.000375436
0.000375479
0.000375529
0.000375589
0.000375656
0.000375737
0.000375827
0.000375932
0.000376049
0.000376185
0.000376334
0.000376476
0.00037659
0.000376717
0.000376841
0.000376981
0.00037711
0.000377262
0.000377392
0.000377557
0.000377684
0.000377861
0.000377984
0.000378171
0.000378289
0.000378483
0.000378603
0.000378772
0.000378961
0.000379029
0.000379409
0.000379174
0.000380162
0.000379073
0.000381492
0.00036749
0.00021408
0.000308466
0.000366203
0.000397205
0.000416573
0.000429507
0.000438766
0.000445444
0.000450548
0.000454461
0.000457459
0.000459861
0.000461816
0.000463388
0.000464661
0.000465727
0.000466638
0.000467416
0.000468073
0.000468628
0.000469106
0.000469524
0.000469896
0.000470231
0.000470531
0.000470798
0.000471035
0.000471246
0.000471434
0.000471603
0.000471758
0.0004719
0.000472032
0.000472156
0.000472271
0.000472379
0.00047248
0.000472574
0.000472663
0.000472745
0.000472823
0.000472897
0.000472966
0.000473032
0.000473096
0.000473157
0.000473217
0.000473277
0.00047334
0.000473402
0.000473465
0.000473532
0.000473599
0.000473673
0.000473753
0.000473841
0.000473935
0.00047404
0.000474151
0.000474278
0.000474413
0.000474566
0.000474729
0.000474884
0.000475004
0.000475139
0.000475267
0.000475414
0.000475544
0.000475704
0.000475831
0.000476007
0.000476126
0.000476317
0.000476432
0.000476634
0.000476743
0.000476955
0.000477065
0.000477268
0.00047743
0.000477564
0.000477905
0.000477877
0.00047856
0.00047838
0.000479618
0.000464946
0.000216098
0.000331216
0.000410563
0.000455819
0.000485197
0.000505505
0.000520484
0.000531654
0.000540422
0.000547336
0.000552803
0.00055729
0.000561024
0.000564108
0.000566679
0.000568877
0.000570786
0.000572447
0.000573882
0.000575129
0.000576221
0.000577194
0.00057807
0.000578863
0.000579581
0.00058023
0.000580815
0.000581345
0.000581824
0.000582263
0.000582666
0.000583039
0.000583386
0.000583711
0.000584014
0.000584298
0.000584564
0.000584814
0.000585047
0.000585266
0.000585471
0.000585665
0.000585846
0.000586019
0.000586182
0.000586338
0.000586486
0.00058663
0.000586771
0.000586908
0.000587042
0.000587176
0.000587306
0.000587441
0.000587577
0.000587719
0.000587863
0.000588017
0.000588173
0.000588343
0.000588517
0.000588709
0.000588906
0.000589091
0.00058923
0.000589387
0.000589529
0.000589699
0.00058984
0.000590023
0.000590157
0.000590359
0.000590482
0.000590703
0.000590822
0.000591055
0.000591172
0.00059142
0.000591538
0.000591798
0.000591941
0.000592203
0.000592458
0.000592705
0.000593145
0.00059369
0.000594454
0.000578344
0.000206791
0.000340721
0.000445923
0.000509241
0.00055163
0.000581683
0.000604336
0.000621627
0.000635465
0.000646597
0.000655588
0.000663092
0.000669432
0.000674763
0.000679283
0.000683197
0.000686635
0.000689658
0.000692305
0.000694634
0.000696699
0.000698554
0.000700235
0.000701765
0.000703158
0.000704426
0.000705578
0.000706628
0.000707587
0.000708468
0.000709282
0.000710039
0.000710743
0.000711403
0.000712019
0.000712598
0.00071314
0.000713649
0.000714126
0.000714574
0.000714994
0.00071539
0.000715762
0.000716115
0.000716447
0.000716764
0.000717064
0.000717351
0.000717627
0.000717893
0.000718149
0.0007184
0.000718641
0.000718882
0.000719117
0.000719355
0.000719589
0.000719831
0.000720069
0.000720321
0.000720569
0.000720837
0.000721102
0.000721347
0.000721529
0.000721732
0.000721911
0.000722126
0.0007223
0.000722531
0.000722694
0.000722948
0.000723095
0.000723374
0.000723518
0.000723812
0.000723957
0.000724275
0.000724425
0.00072478
0.000724945
0.000725364
0.000725577
0.000726151
0.00072646
0.000727509
0.000728217
0.000711149
0.000183467
0.000332574
0.00046732
0.000553024
0.000612013
0.000654677
0.000687364
0.00071275
0.00073336
0.000750186
0.000763992
0.000775659
0.000785631
0.000794124
0.000801417
0.000807795
0.000813442
0.000818448
0.000822874
0.000826802
0.000830315
0.00083349
0.000836381
0.000839025
0.000841442
0.000843653
0.000845673
0.000847523
0.000849222
0.00085079
0.000852243
0.000853596
0.000854859
0.000856043
0.000857151
0.000858192
0.000859169
0.000860087
0.000860949
0.000861759
0.000862521
0.000863239
0.000863914
0.000864554
0.000865157
0.000865731
0.000866274
0.000866791
0.000867286
0.000867761
0.000868215
0.000868656
0.000869078
0.000869492
0.000869891
0.000870288
0.000870673
0.000871062
0.000871439
0.00087183
0.000872207
0.000872608
0.000872995
0.000873348
0.000873609
0.000873895
0.000874146
0.000874444
0.000874685
0.000875001
0.000875227
0.00087557
0.000875777
0.000876153
0.000876353
0.000876756
0.000876961
0.000877398
0.000877613
0.000878111
0.000878344
0.000878952
0.000879227
0.000880067
0.000880456
0.000881788
0.000882805
0.000865372
0.000144211
0.000301974
0.000468296
0.000581034
0.000660853
0.000719585
0.000765174
0.000801049
0.000830494
0.000854802
0.000874985
0.000892209
0.00090706
0.000919834
0.000930909
0.000940672
0.000949371
0.000957132
0.000964046
0.000970224
0.000975786
0.000980838
0.000985459
0.000989699
0.000993592
0.000997166
0.00100045
0.00100346
0.00100624
0.00100882
0.00101121
0.00101345
0.00101554
0.0010175
0.00101934
0.00102107
0.00102269
0.00102422
0.00102566
0.00102701
0.00102829
0.00102949
0.00103062
0.0010317
0.00103271
0.00103367
0.00103459
0.00103546
0.00103628
0.00103708
0.00103784
0.00103857
0.00103927
0.00103995
0.0010406
0.00104125
0.00104187
0.00104249
0.00104308
0.00104369
0.00104428
0.00104489
0.00104548
0.001046
0.00104639
0.00104682
0.00104719
0.00104762
0.00104798
0.00104843
0.00104876
0.00104925
0.00104956
0.00105009
0.00105038
0.00105096
0.00105126
0.00105188
0.0010522
0.0010529
0.00105325
0.00105409
0.00105451
0.00105562
0.0010562
0.00105778
0.00105922
0.00104145
9.09285e-05
0.000244416
0.000441241
0.000585114
0.0006906
0.000769526
0.000831493
0.000880776
0.000921573
0.000955538
0.000984001
0.00100848
0.00102972
0.00104813
0.00106422
0.00107848
0.00109126
0.00110272
0.00111299
0.00112221
0.00113056
0.00113818
0.00114517
0.00115161
0.00115754
0.001163
0.00116803
0.00117267
0.00117697
0.00118096
0.00118467
0.00118815
0.00119141
0.00119447
0.00119734
0.00120005
0.0012026
0.001205
0.00120726
0.00120939
0.0012114
0.0012133
0.00121509
0.00121679
0.0012184
0.00121992
0.00122137
0.00122275
0.00122406
0.00122532
0.00122652
0.00122767
0.00122878
0.00122985
0.00123088
0.00123188
0.00123285
0.00123381
0.00123473
0.00123567
0.00123656
0.00123749
0.00123837
0.00123916
0.00123974
0.00124036
0.00124092
0.00124155
0.00124208
0.00124272
0.00124323
0.00124391
0.0012444
0.00124512
0.00124558
0.00124637
0.00124683
0.0012477
0.00124817
0.00124913
0.00124965
0.00125078
0.0012514
0.00125281
0.00125364
0.00125548
0.00125731
0.00123926
3.52922e-05
0.000157956
0.000375572
0.000555144
0.000691158
0.000795089
0.000877612
0.000943848
0.000999076
0.00104535
0.00108442
0.00111822
0.00114771
0.00117341
0.001196
0.00121614
0.00123425
0.00125055
0.00126522
0.00127847
0.0012905
0.00130153
0.00131167
0.00132104
0.00132969
0.00133767
0.00134505
0.00135189
0.00135822
0.00136413
0.00136964
0.0013748
0.00137965
0.00138421
0.0013885
0.00139254
0.00139635
0.00139995
0.00140334
0.00140654
0.00140956
0.00141242
0.00141512
0.00141768
0.00142011
0.00142242
0.0014246
0.00142669
0.00142868
0.00143058
0.0014324
0.00143414
0.00143581
0.00143743
0.00143898
0.00144049
0.00144194
0.00144338
0.00144476
0.00144614
0.00144747
0.00144882
0.00145013
0.00145127
0.00145212
0.00145302
0.00145383
0.00145472
0.0014555
0.0014564
0.00145715
0.00145807
0.0014588
0.00145977
0.00146047
0.00146152
0.0014622
0.00146335
0.00146403
0.00146531
0.00146604
0.00146749
0.00146834
0.00147009
0.00147118
0.00147333
0.00147544
0.00145748
3.39233e-06
4.78591e-05
0.000258657
0.000477471
0.000649877
0.00078377
0.000891692
0.00097915
0.00105256
0.00111438
0.00116691
0.00121259
0.00125258
0.0012876
0.00131853
0.00134622
0.00137119
0.00139373
0.00141409
0.00143254
0.00144937
0.00146482
0.00147908
0.00149226
0.00150446
0.00151575
0.00152621
0.00153592
0.00154494
0.00155337
0.00156124
0.00156864
0.00157559
0.00158214
0.0015883
0.00159413
0.00159962
0.0016048
0.0016097
0.00161432
0.0016187
0.00162284
0.00162676
0.00163047
0.001634
0.00163735
0.00164053
0.00164357
0.00164646
0.00164923
0.00165187
0.00165442
0.00165684
0.00165919
0.00166144
0.00166363
0.00166574
0.0016678
0.00166979
0.00167177
0.00167368
0.0016756
0.00167746
0.00167906
0.00168027
0.00168151
0.00168266
0.00168388
0.00168498
0.00168619
0.00168725
0.00168848
0.0016895
0.00169077
0.00169177
0.0016931
0.00169407
0.00169551
0.00169648
0.00169805
0.00169906
0.00170083
0.00170194
0.00170399
0.00170542
0.00170776
0.00171009
0.00169282
1.25409e-07
2.11929e-06
8.50291e-05
0.000335205
0.000549175
0.000719356
0.000858242
0.000971712
0.00106779
0.00114906
0.00121854
0.00127923
0.00133251
0.00137932
0.00142085
0.00145816
0.00149188
0.00152239
0.00155001
0.00157512
0.00159808
0.00161923
0.00163877
0.00165687
0.00167363
0.00168918
0.00170361
0.00171703
0.00172953
0.00174121
0.00175216
0.00176246
0.00177214
0.00178127
0.00178988
0.00179801
0.00180568
0.00181294
0.0018198
0.00182628
0.00183242
0.00183823
0.00184374
0.00184897
0.00185393
0.00185865
0.00186314
0.00186742
0.0018715
0.00187541
0.00187913
0.00188271
0.00188613
0.00188944
0.0018926
0.00189567
0.00189862
0.00190151
0.00190428
0.00190703
0.00190967
0.00191232
0.00191488
0.00191705
0.0019187
0.00192036
0.00192193
0.00192354
0.00192503
0.0019266
0.00192803
0.0019296
0.00193099
0.00193257
0.00193392
0.00193554
0.00193687
0.00193856
0.00193989
0.0019417
0.00194307
0.00194504
0.00194654
0.00194872
0.00195052
0.00195295
0.00195542
0.00193959
2.37333e-08
6.11864e-08
1.67387e-06
0.000100462
0.000366958
0.000579639
0.00075631
0.00090203
0.00102603
0.00113117
0.0012217
0.00130126
0.00137121
0.00143285
0.00148777
0.00153726
0.00158206
0.00162264
0.00165946
0.00169301
0.00172379
0.00175218
0.00177846
0.00180282
0.00182541
0.00184638
0.00186587
0.00188403
0.00190097
0.00191683
0.00193172
0.00194573
0.00195891
0.00197136
0.0019831
0.0019942
0.00200468
0.0020146
0.00202397
0.00203285
0.00204125
0.00204921
0.00205676
0.00206394
0.00207075
0.00207723
0.0020834
0.00208928
0.00209489
0.00210026
0.00210538
0.00211029
0.00211499
0.00211952
0.00212385
0.00212805
0.00213207
0.00213599
0.00213976
0.00214346
0.00214703
0.00215056
0.00215398
0.00215684
0.00215902
0.00216119
0.00216324
0.0021653
0.00216725
0.00216923
0.00217109
0.00217302
0.00217481
0.00217672
0.00217845
0.00218036
0.00218206
0.00218399
0.00218569
0.00218769
0.00218943
0.00219153
0.00219338
0.00219563
0.00219772
0.00220013
0.0022027
0.00218903
1.61034e-08
1.83064e-08
3.53525e-08
8.48867e-07
7.38073e-05
0.000328462
0.000558465
0.000742801
0.000901746
0.00103651
0.00115338
0.00125625
0.00134677
0.00142681
0.00149852
0.00156336
0.0016221
0.00167534
0.00172372
0.00176794
0.0018086
0.00184617
0.00188098
0.00191326
0.00194322
0.00197105
0.00199695
0.0020211
0.00204368
0.00206486
0.00208475
0.00210348
0.00212113
0.00213779
0.00215353
0.0021684
0.00218245
0.00219574
0.00220832
0.00222023
0.00223152
0.00224222
0.00225237
0.00226202
0.00227119
0.00227992
0.00228823
0.00229616
0.00230371
0.00231094
0.00231783
0.00232444
0.00233076
0.00233683
0.00234265
0.00234826
0.00235364
0.00235885
0.00236386
0.00236874
0.00237343
0.00237804
0.00238249
0.00238617
0.00238898
0.00239173
0.00239434
0.00239692
0.00239937
0.00240181
0.00240412
0.00240645
0.00240865
0.0024109
0.00241302
0.0024152
0.00241726
0.00241941
0.00242144
0.00242359
0.00242564
0.00242782
0.00242993
0.00243217
0.00243446
0.00243674
0.00243936
0.00242835
1.52764e-08
1.54031e-08
1.61565e-08
2.30212e-08
2.11368e-07
2.05216e-05
0.000197411
0.000453543
0.000661485
0.000831399
0.000981066
0.00111365
0.00122989
0.00133296
0.00142564
0.00150958
0.00158562
0.00165455
0.00171731
0.00177489
0.00182801
0.00187717
0.00192273
0.00196498
0.0020042
0.00204066
0.00207461
0.00210633
0.00213602
0.00216391
0.00219013
0.00221485
0.00223815
0.00226015
0.00228092
0.00230056
0.00231912
0.00233669
0.00235331
0.00236906
0.00238398
0.00239815
0.00241159
0.00242437
0.00243652
0.00244809
0.00245911
0.00246962
0.00247964
0.00248921
0.00249835
0.0025071
0.00251546
0.00252348
0.00253115
0.00253854
0.0025456
0.00255242
0.00255896
0.00256528
0.00257136
0.00257726
0.00258295
0.00258759
0.00259113
0.00259455
0.0025978
0.00260096
0.00260397
0.0026069
0.0026097
0.00261245
0.00261507
0.00261766
0.00262014
0.00262259
0.00262496
0.00262731
0.0026296
0.00263188
0.00263413
0.00263635
0.00263863
0.00264079
0.00264318
0.00264524
0.00264786
0.0026392
1.52051e-08
1.51123e-08
1.50839e-08
1.5264e-08
1.7317e-08
4.31519e-08
9.1926e-07
4.21676e-05
0.000225615
0.000453907
0.000660393
0.000832848
0.000979809
0.00111114
0.0012308
0.00133926
0.00143709
0.0015256
0.00160642
0.00168074
0.00174942
0.00181305
0.00187201
0.00192666
0.00197737
0.00202454
0.00206854
0.00210972
0.00214837
0.00218472
0.00221894
0.0022512
0.00228163
0.00231036
0.00233748
0.00236311
0.00238734
0.00241026
0.00243196
0.00245253
0.00247202
0.00249054
0.00250811
0.00252483
0.00254073
0.00255588
0.00257031
0.00258408
0.0025972
0.00260974
0.00262169
0.00263313
0.00264405
0.0026545
0.00266448
0.00267405
0.00268318
0.00269195
0.00270033
0.00270838
0.00271608
0.00272349
0.00273059
0.00273631
0.00274065
0.00274479
0.00274871
0.00275247
0.00275603
0.00275944
0.00276268
0.00276579
0.00276875
0.0027716
0.00277431
0.00277693
0.00277944
0.00278185
0.00278418
0.00278642
0.00278861
0.00279067
0.00279279
0.00279466
0.0027968
0.00279835
0.00280078
0.00279702
1.52117e-08
1.51356e-08
1.50953e-08
1.50127e-08
1.50351e-08
1.54286e-08
1.84493e-08
4.58954e-08
6.17322e-07
1.81984e-05
0.000136139
0.00032248
0.000515722
0.000699495
0.000862329
0.00100348
0.00112759
0.00123967
0.00134291
0.00143879
0.00152774
0.00161
0.00168594
0.00175613
0.00182119
0.00188176
0.00193839
0.00199147
0.00204132
0.00208827
0.00213249
0.0021742
0.00221352
0.00225063
0.00228565
0.00231873
0.00235
0.00237958
0.00240759
0.00243414
0.00245933
0.00248327
0.00250601
0.00252766
0.00254827
0.00256792
0.00258664
0.00260451
0.00262153
0.00263779
0.0026533
0.00266811
0.00268224
0.00269574
0.00270861
0.0027209
0.00273259
0.00274376
0.00275438
0.00276451
0.00277414
0.00278331
0.00279202
0.00279894
0.00280414
0.00280905
0.00281367
0.00281801
0.00282209
0.00282593
0.00282953
0.00283293
0.0028361
0.00283909
0.00284188
0.00284452
0.00284696
0.00284928
0.0028514
0.00285346
0.00285529
0.00285712
0.00285866
0.00286032
0.00286157
0.00286315
0.00286403
0.00286574
1.52225e-08
1.51729e-08
1.51421e-08
1.50882e-08
1.50556e-08
1.50125e-08
1.5044e-08
1.53442e-08
1.69996e-08
2.61706e-08
9.63366e-08
1.15245e-06
1.66841e-05
0.000105052
0.000243585
0.00039413
0.000551233
0.00070617
0.000851568
0.000983885
0.00110269
0.00120942
0.00130614
0.0013949
0.00147727
0.00155439
0.00162691
0.00169531
0.0017598
0.00182057
0.00187777
0.00193161
0.00198225
0.00202994
0.00207486
0.00211726
0.00215729
0.00219517
0.00223105
0.0022651
0.00229742
0.00232816
0.00235741
0.00238525
0.00241175
0.00243702
0.0024611
0.00248407
0.00250596
0.00252685
0.00254676
0.00256575
0.00258385
0.0026011
0.00261753
0.00263319
0.00264807
0.00266221
0.00267564
0.00268837
0.00270043
0.00271182
0.00272257
0.00273101
0.00273733
0.00274323
0.00274873
0.00275386
0.00275863
0.00276306
0.00276717
0.00277097
0.00277448
0.00277772
0.0027807
0.00278343
0.00278592
0.0027882
0.00279025
0.00279212
0.00279378
0.00279529
0.0027966
0.00279778
0.00279879
0.00279967
0.00280045
0.00280638
1.52298e-08
1.51959e-08
1.51769e-08
1.514e-08
1.51217e-08
1.50856e-08
1.50684e-08
1.5038e-08
1.50439e-08
1.51535e-08
1.5416e-08
1.76412e-08
2.22162e-08
5.55136e-08
2.12486e-07
1.68089e-06
1.31916e-05
6.39696e-05
0.000154056
0.000256809
0.000366605
0.000482367
0.000601097
0.000719332
0.000834021
0.000943102
0.00104533
0.00114031
0.0012281
0.00130917
0.00138409
0.00145357
0.00151823
0.00157869
0.00163544
0.00168895
0.00173954
0.00178753
0.00183312
0.00187652
0.00191785
0.00195727
0.00199484
0.0020307
0.00206489
0.00209751
0.0021286
0.00215825
0.00218649
0.0022134
0.002239
0.00226338
0.00228656
0.00230859
0.00232951
0.00234936
0.00236817
0.00238599
0.00240282
0.00241871
0.00243366
0.00244768
0.00246081
0.00247101
0.00247858
0.00248559
0.00249207
0.00249803
0.0025035
0.00250852
0.0025131
0.00251725
0.00252102
0.00252441
0.00252745
0.00253014
0.00253252
0.00253458
0.00253638
0.00253788
0.00253916
0.00254016
0.00254099
0.00254153
0.002542
0.00254212
0.00254258
0.00255343
1.52345e-08
1.52142e-08
1.51969e-08
1.51771e-08
1.51604e-08
1.5142e-08
1.5126e-08
1.51091e-08
1.50925e-08
1.50781e-08
1.50674e-08
1.508e-08
1.51153e-08
1.53394e-08
1.57204e-08
1.71784e-08
2.00015e-08
2.9557e-08
5.59814e-08
1.58615e-07
6.25886e-07
2.84065e-06
1.18757e-05
3.80957e-05
8.62565e-05
0.000147642
0.000213997
0.000283303
0.000355418
0.000430108
0.000506647
0.000584176
0.000661726
0.000738482
0.000813682
0.000886787
0.000957333
0.00102506
0.00108976
0.00115137
0.00120986
0.0012653
0.00131775
0.00136735
0.0014142
0.00145847
0.00150027
0.00153978
0.00157709
0.00161236
0.00164568
0.00167719
0.00170695
0.00173508
0.00176164
0.00178671
0.00181033
0.00183258
0.00185347
0.00187307
0.00189137
0.00190842
0.0019242
0.00193635
0.00194527
0.00195346
0.00196092
0.00196773
0.00197387
0.00197941
0.00198436
0.00198878
0.00199265
0.00199605
0.00199896
0.00200145
0.00200349
0.00200517
0.00200644
0.00200741
0.002008
0.00200836
0.00200832
0.00200813
0.00200775
0.00200671
0.00200674
0.00202353
1.52383e-08
1.52258e-08
1.52177e-08
1.52042e-08
1.51967e-08
1.51842e-08
1.51771e-08
1.51655e-08
1.51589e-08
1.51479e-08
1.51409e-08
1.51307e-08
1.5125e-08
1.51186e-08
1.51195e-08
1.51276e-08
1.51457e-08
1.52042e-08
1.53081e-08
1.55476e-08
1.59943e-08
1.69878e-08
1.86966e-08
2.24266e-08
2.92502e-08
4.43585e-08
7.67335e-08
1.55135e-07
3.47269e-07
8.40524e-07
2.06455e-06
4.97609e-06
1.12044e-05
2.29512e-05
4.1722e-05
6.74007e-05
9.79923e-05
0.000131422
0.000166065
0.000201333
0.000236856
0.000272703
0.00030871
0.000344977
0.000381268
0.000417651
0.000453822
0.000489856
0.000525416
0.000560606
0.000595075
0.000628966
0.000661926
0.000694134
0.000725239
0.000755451
0.000784403
0.000812115
0.000838424
0.000863364
0.000886781
0.000908702
0.000928994
0.000944581
0.000955975
0.000966391
0.000975798
0.000984304
0.000991887
0.000998648
0.00100457
0.00100975
0.00101417
0.00101793
0.00102102
0.00102352
0.00102543
0.00102682
0.0010277
0.00102814
0.00102805
0.00102773
0.00102695
0.00102614
0.00102451
0.00102334
0.00102098
0.00104062
1.52408e-08
1.52377e-08
1.52327e-08
1.52293e-08
1.52247e-08
1.52216e-08
1.52172e-08
1.52143e-08
1.52102e-08
1.52075e-08
1.52036e-08
1.52011e-08
1.51974e-08
1.51946e-08
1.5191e-08
1.51885e-08
1.51855e-08
1.51838e-08
1.51822e-08
1.51825e-08
1.51841e-08
1.51886e-08
1.51971e-08
1.52164e-08
1.52448e-08