/*--------------------------------*- C++ -*----------------------------------*\
| =========                 |                                                 |
| \\      /  F ield         | OpenFOAM: The Open Source CFD Toolbox           |
|  \\    /   O peration     | Version:  v1912                                 |
|   \\  /    A nd           | Website:  www.openfoam.com                      |
|    \\/     M anipulation  |                                                 |
\*---------------------------------------------------------------------------*/
FoamFile
{
    version     2.0;
    format      ascii;
    class       volScalarField;
    location    "10000";
    object      nut;
}
// * * * * * * * * * * * * * * * * * * * * * * * * * * * * * * * * * * * * * //

dimensions      [0 2 -1 0 0 0 0];


internalField   nonuniform List<scalar> 
20540
(
1.26668e-06
0.000169512
1.29149e-06
0.000169779
1.35396e-06
0.000170381
1.47183e-06
0.000171361
1.6686e-06
0.000172712
1.97237e-06
0.000174326
2.40817e-06
0.000175904
2.97669e-06
0.000176841
3.6151e-06
0.000176367
4.15002e-06
0.000173343
4.29661e-06
0.000166012
3.75961e-06
0.00015192
2.51108e-06
0.000127702
1.09045e-06
8.94162e-05
2.59421e-07
3.78482e-05
4.52546e-08
3.95269e-06
2.09844e-08
1.95828e-07
1.63727e-08
2.64969e-08
1.57236e-08
1.70446e-08
1.52814e-08
1.54288e-08
1.52624e-08
1.53038e-08
1.52429e-08
1.52497e-08
1.52439e-08
1.5245e-08
1.52454e-08
1.5245e-08
1.52452e-08
1.52449e-08
1.52449e-08
1.52446e-08
1.52445e-08
1.52443e-08
1.52441e-08
1.52438e-08
1.52436e-08
1.52433e-08
1.5243e-08
1.52425e-08
1.52423e-08
1.52416e-08
1.52417e-08
1.5241e-08
1.52417e-08
1.5241e-08
1.52423e-08
1.52416e-08
1.5243e-08
1.52425e-08
1.52436e-08
1.52433e-08
1.52441e-08
1.52438e-08
1.52445e-08
1.52442e-08
1.52448e-08
1.52446e-08
1.52451e-08
1.52448e-08
1.52453e-08
1.5245e-08
1.52439e-08
1.52448e-08
1.52427e-08
1.52459e-08
1.52488e-08
1.52645e-08
1.52811e-08
1.53523e-08
1.54294e-08
1.59179e-08
1.57799e-08
2.00844e-08
1.82063e-08
6.61453e-08
2.50077e-08
1.00498e-06
1.00609e-07
1.60846e-05
5.28139e-07
6.50295e-05
1.62393e-06
0.000109265
3.01353e-06
0.000139709
3.98822e-06
0.00015871
4.26171e-06
0.000169608
3.97757e-06
0.000175084
3.4154e-06
0.000177106
2.8098e-06
0.000177092
2.28941e-06
0.000175951
1.89523e-06
0.000174364
1.62062e-06
0.000172813
1.4419e-06
0.000171534
1.33408e-06
0.000170612
1.27648e-06
0.000170045
1.25342e-06
0.000169793
1.56416e-08
1.02681e-08
8.80146e-09
7.98771e-09
7.47527e-09
7.12393e-09
6.86862e-09
6.67081e-09
6.51475e-09
6.389e-09
6.28449e-09
6.19651e-09
6.12183e-09
6.05751e-09
6.00131e-09
5.95191e-09
5.90836e-09
5.86979e-09
5.83537e-09
5.80441e-09
5.77642e-09
5.75104e-09
5.728e-09
5.70705e-09
5.68796e-09
5.67049e-09
5.65447e-09
5.63971e-09
5.62607e-09
5.61345e-09
5.60174e-09
5.59088e-09
5.5808e-09
5.57143e-09
5.56273e-09
5.55465e-09
5.54714e-09
5.54017e-09
5.53372e-09
5.52776e-09
5.52228e-09
5.51727e-09
5.51275e-09
5.50874e-09
5.50525e-09
5.50233e-09
5.50003e-09
5.49826e-09
5.49803e-09
5.49948e-09
5.50131e-09
5.50435e-09
5.50545e-09
5.50785e-09
5.51469e-09
5.52278e-09
5.53282e-09
5.54502e-09
5.5598e-09
5.5773e-09
5.59812e-09
5.6223e-09
5.65023e-09
5.67713e-09
5.70164e-09
5.727e-09
5.75405e-09
5.78285e-09
5.81338e-09
5.84568e-09
5.87984e-09
5.91573e-09
5.95376e-09
5.99329e-09
6.03567e-09
6.07888e-09
6.1265e-09
6.17329e-09
6.22793e-09
6.278e-09
6.34292e-09
6.39754e-09
6.4758e-09
6.54554e-09
6.634e-09
6.79727e-09
6.85428e-09
7.94022e-09
1.66883e-06
1.23297e-06
1.05156e-06
9.48509e-07
8.8281e-07
8.37491e-07
8.04511e-07
7.78931e-07
7.58737e-07
7.4246e-07
7.28935e-07
7.17554e-07
7.07898e-07
6.99583e-07
6.92323e-07
6.85945e-07
6.80326e-07
6.75353e-07
6.70916e-07
6.66928e-07
6.63325e-07
6.6006e-07
6.57097e-07
6.54405e-07
6.51952e-07
6.49711e-07
6.47655e-07
6.45763e-07
6.44016e-07
6.424e-07
6.40902e-07
6.39514e-07
6.38225e-07
6.37029e-07
6.35919e-07
6.34889e-07
6.33933e-07
6.33046e-07
6.32225e-07
6.31466e-07
6.30769e-07
6.30133e-07
6.29557e-07
6.29045e-07
6.28597e-07
6.28221e-07
6.27919e-07
6.27815e-07
6.27876e-07
6.28355e-07
6.28983e-07
6.29411e-07
6.29292e-07
6.29002e-07
6.29536e-07
6.30466e-07
6.31642e-07
6.33076e-07
6.34814e-07
6.36873e-07
6.39319e-07
6.42157e-07
6.45334e-07
6.48492e-07
6.51649e-07
6.54633e-07
6.57796e-07
6.61156e-07
6.64708e-07
6.68455e-07
6.72403e-07
6.76538e-07
6.809e-07
6.85418e-07
6.90231e-07
6.95119e-07
7.00454e-07
7.0568e-07
7.11678e-07
7.17178e-07
7.24081e-07
7.29941e-07
7.37757e-07
7.44782e-07
7.53289e-07
7.63044e-07
7.80983e-07
9.99688e-07
2.15495e-05
1.78609e-05
1.54198e-05
1.39501e-05
1.29883e-05
1.23144e-05
1.18191e-05
1.14319e-05
1.11242e-05
1.08749e-05
1.06667e-05
1.04908e-05
1.0341e-05
1.02116e-05
1.00983e-05
9.99853e-06
9.9104e-06
9.83222e-06
9.76234e-06
9.69942e-06
9.64247e-06
9.59079e-06
9.54385e-06
9.50114e-06
9.46219e-06
9.42657e-06
9.39386e-06
9.36374e-06
9.33591e-06
9.31016e-06
9.28629e-06
9.26415e-06
9.24361e-06
9.22455e-06
9.20685e-06
9.19042e-06
9.17518e-06
9.16105e-06
9.14797e-06
9.1359e-06
9.1248e-06
9.11467e-06
9.1055e-06
9.09734e-06
9.0902e-06
9.08419e-06
9.07934e-06
9.07718e-06
9.08052e-06
9.08323e-06
9.08294e-06
9.08883e-06
9.09209e-06
9.09349e-06
9.10336e-06
9.11748e-06
9.13528e-06
9.15715e-06
9.18363e-06
9.21496e-06
9.25215e-06
9.29516e-06
9.34641e-06
9.39814e-06
9.44419e-06
9.48972e-06
9.53768e-06
9.58848e-06
9.64201e-06
9.69834e-06
9.75745e-06
9.81919e-06
9.88399e-06
9.95092e-06
1.00217e-05
1.00935e-05
1.0171e-05
1.02469e-05
1.03324e-05
1.04112e-05
1.0507e-05
1.05893e-05
1.06924e-05
1.07844e-05
1.09117e-05
1.09591e-05
1.13765e-05
1.00703e-05
5.95765e-05
6.12395e-05
5.90029e-05
5.67816e-05
5.50355e-05
5.36586e-05
5.25708e-05
5.16653e-05
5.09145e-05
5.02836e-05
4.97392e-05
4.92686e-05
4.88602e-05
4.85006e-05
4.81804e-05
4.78947e-05
4.76399e-05
4.74118e-05
4.72059e-05
4.70187e-05
4.68479e-05
4.6692e-05
4.65496e-05
4.64195e-05
4.63003e-05
4.61907e-05
4.60896e-05
4.59961e-05
4.59093e-05
4.58286e-05
4.57536e-05
4.56838e-05
4.56188e-05
4.55583e-05
4.5502e-05
4.54496e-05
4.54008e-05
4.53554e-05
4.53131e-05
4.52739e-05
4.52376e-05
4.52041e-05
4.51735e-05
4.51459e-05
4.51213e-05
4.50999e-05
4.50819e-05
4.50678e-05
4.50605e-05
4.50564e-05
4.50554e-05
4.50633e-05
4.5071e-05
4.5086e-05
4.51124e-05
4.51473e-05
4.51919e-05
4.52473e-05
4.53147e-05
4.5395e-05
4.54904e-05
4.5601e-05
4.57297e-05
4.58519e-05
4.59596e-05
4.60732e-05
4.61919e-05
4.63173e-05
4.64479e-05
4.65853e-05
4.67271e-05
4.68756e-05
4.70277e-05
4.7186e-05
4.73481e-05
4.75146e-05
4.7686e-05
4.78583e-05
4.80399e-05
4.82097e-05
4.84129e-05
4.8563e-05
4.8807e-05
4.88553e-05
4.93873e-05
4.83428e-05
5.20459e-05
3.77749e-05
0.000100501
0.000112998
0.000114451
0.000113405
0.000112106
0.000110873
0.000109809
0.000108855
0.000108031
0.000107314
0.000106675
0.000106112
0.000105616
0.000105172
0.000104771
0.000104409
0.000104085
0.000103792
0.000103526
0.000103283
0.00010306
0.000102855
0.000102667
0.000102495
0.000102338
0.000102192
0.000102058
0.000101933
0.000101817
0.000101708
0.000101607
0.000101513
0.000101426
0.000101344
0.000101268
0.000101197
0.000101131
0.00010107
0.000101013
0.000100959
0.00010091
0.000100864
0.000100822
0.000100784
0.00010075
0.000100719
0.000100694
0.000100672
0.000100655
0.000100646
0.000100643
0.000100646
0.000100657
0.000100678
0.000100709
0.00010075
0.000100803
0.000100869
0.00010095
0.000101047
0.000101163
0.000101297
0.000101452
0.000101596
0.000101722
0.000101858
0.000102
0.000102151
0.000102305
0.000102469
0.000102636
0.000102812
0.000102989
0.000103176
0.000103361
0.000103557
0.000103748
0.00010395
0.00010415
0.000104338
0.000104575
0.000104709
0.000105041
0.0001049
0.000105891
0.00010363
0.000109963
8.67616e-05
0.000138564
0.000164779
0.000172635
0.000174395
0.000174611
0.000174253
0.000173747
0.000173145
0.000172562
0.000172008
0.000171476
0.000170988
0.000170546
0.000170137
0.000169758
0.000169411
0.000169095
0.000168809
0.000168545
0.0001683
0.000168073
0.000167864
0.000167672
0.000167496
0.000167333
0.000167183
0.000167043
0.000166913
0.000166791
0.000166678
0.000166571
0.000166472
0.00016638
0.000166294
0.000166214
0.000166139
0.000166069
0.000166004
0.000165944
0.000165887
0.000165835
0.000165786
0.000165742
0.000165701
0.000165665
0.000165632
0.000165605
0.000165581
0.000165562
0.000165552
0.000165548
0.00016555
0.000165561
0.000165582
0.000165613
0.000165655
0.000165709
0.000165777
0.00016586
0.00016596
0.000166077
0.000166215
0.000166373
0.000166521
0.000166648
0.000166787
0.00016693
0.000167083
0.000167238
0.000167405
0.00016757
0.000167748
0.000167921
0.00016811
0.000168289
0.000168487
0.000168668
0.000168871
0.000169059
0.000169238
0.000169482
0.000169577
0.000169966
0.000169653
0.000170976
0.000168125
0.000175022
0.000152676
0.000171725
0.000213946
0.000230678
0.000236897
0.00023974
0.000241031
0.000241647
0.000241818
0.000241799
0.000241664
0.00024144
0.00024119
0.000240937
0.000240677
0.000240414
0.000240162
0.000239926
0.000239706
0.000239498
0.000239299
0.00023911
0.000238934
0.000238771
0.00023862
0.00023848
0.00023835
0.000238227
0.000238112
0.000238004
0.000237902
0.000237806
0.000237716
0.000237633
0.000237555
0.000237483
0.000237415
0.000237352
0.000237293
0.000237238
0.000237187
0.00023714
0.000237096
0.000237056
0.000237019
0.000236986
0.000236957
0.000236933
0.000236912
0.000236896
0.000236888
0.000236886
0.000236891
0.000236904
0.000236926
0.000236958
0.000237002
0.000237057
0.000237126
0.000237209
0.000237309
0.000237425
0.000237562
0.000237719
0.000237866
0.00023799
0.000238127
0.000238267
0.000238417
0.000238567
0.00023873
0.000238887
0.000239063
0.000239225
0.000239412
0.000239577
0.000239773
0.000239936
0.000240137
0.000240308
0.000240475
0.00024072
0.000240781
0.000241206
0.000240801
0.000242249
0.00023949
0.000245466
0.000226992
0.000198896
0.00025965
0.000288029
0.000300732
0.000307644
0.000311635
0.000314171
0.000315719
0.000316741
0.000317401
0.000317786
0.000318022
0.000318163
0.000318222
0.000318218
0.000318183
0.000318133
0.000318072
0.000317999
0.000317916
0.000317827
0.000317739
0.000317654
0.000317573
0.000317497
0.000317423
0.000317351
0.000317281
0.000317213
0.000317148
0.000317086
0.000317027
0.000316972
0.000316921
0.000316874
0.000316829
0.000316788
0.000316749
0.000316713
0.00031668
0.000316649
0.000316621
0.000316594
0.000316571
0.000316551
0.000316533
0.00031652
0.00031651
0.000316502
0.000316503
0.00031651
0.000316524
0.000316543
0.000316572
0.00031661
0.000316659
0.000316719
0.000316792
0.000316879
0.000316982
0.000317101
0.000317239
0.000317396
0.000317544
0.000317666
0.000317802
0.000317938
0.000318087
0.000318231
0.000318394
0.000318543
0.000318718
0.000318868
0.000319055
0.000319205
0.000319403
0.000319549
0.000319751
0.000319905
0.000320069
0.000320308
0.000320356
0.000320796
0.000320404
0.000321762
0.000319634
0.00032395
0.000308194
0.000218973
0.000300542
0.000343961
0.000365639
0.000378468
0.000386565
0.000392129
0.000395929
0.000398703
0.00040074
0.000402206
0.000403322
0.000404194
0.000404854
0.00040535
0.00040574
0.000406058
0.000406316
0.00040652
0.000406676
0.000406796
0.000406894
0.000406976
0.000407046
0.000407106
0.000407156
0.000407195
0.000407226
0.000407249
0.000407267
0.000407281
0.000407293
0.000407304
0.000407313
0.000407322
0.000407331
0.00040734
0.000407348
0.000407355
0.000407363
0.000407369
0.000407377
0.000407384
0.000407392
0.0004074
0.00040741
0.000407423
0.000407437
0.000407452
0.000407474
0.000407501
0.000407534
0.000407571
0.000407616
0.000407668
0.000407732
0.000407805
0.000407891
0.000407988
0.000408101
0.000408227
0.000408373
0.000408535
0.000408688
0.000408811
0.000408949
0.000409084
0.000409235
0.000409375
0.00040954
0.000409682
0.000409861
0.00041
0.000410193
0.000410329
0.000410533
0.000410664
0.000410875
0.000411012
0.000411191
0.00041141
0.000411481
0.000411906
0.000411643
0.00041273
0.000411558
0.00041412
0.000399105
0.0002305
0.000334397
0.00039685
0.000430496
0.000451502
0.000465467
0.000475491
0.000482708
0.00048821
0.00049244
0.000495672
0.000498252
0.000500355
0.00050205
0.000503419
0.00050456
0.000505535
0.00050637
0.000507078
0.000507676
0.000508187
0.000508634
0.000509032
0.000509389
0.000509709
0.000509995
0.000510249
0.000510475
0.000510677
0.000510858
0.000511022
0.000511174
0.000511313
0.000511444
0.000511566
0.00051168
0.000511787
0.000511888
0.000511982
0.000512071
0.000512154
0.000512232
0.000512306
0.000512377
0.000512445
0.00051251
0.000512575
0.000512639
0.0005127
0.000512765
0.000512833
0.000512905
0.000512979
0.000513058
0.000513143
0.000513237
0.000513337
0.000513451
0.000513571
0.000513708
0.000513854
0.00051402
0.000514196
0.000514364
0.000514495
0.000514642
0.00051478
0.000514941
0.000515082
0.000515257
0.000515396
0.000515588
0.000515719
0.000515928
0.000516054
0.000516276
0.000516397
0.000516629
0.000516754
0.000516972
0.000517159
0.000517302
0.00051768
0.000517647
0.000518385
0.000518205
0.000519475
0.000503625
0.00023167
0.00035803
0.000443969
0.000493126
0.000525028
0.000546999
0.000563242
0.000575336
0.000584809
0.000592298
0.000598206
0.000603041
0.000607071
0.000610406
0.00061318
0.000615545
0.0006176
0.00061939
0.000620941
0.000622286
0.000623463
0.000624509
0.000625451
0.000626303
0.000627077
0.000627776
0.000628407
0.000628979
0.000629496
0.000629968
0.000630401
0.000630802
0.000631174
0.000631522
0.000631847
0.000632152
0.000632438
0.000632706
0.000632957
0.000633193
0.000633414
0.000633623
0.000633819
0.000634004
0.00063418
0.000634348
0.000634508
0.000634663
0.000634811
0.000634957
0.000635101
0.000635246
0.000635388
0.000635533
0.000635679
0.000635832
0.000635986
0.000636153
0.000636321
0.000636506
0.000636693
0.000636902
0.000637115
0.000637316
0.000637468
0.000637639
0.000637793
0.000637978
0.000638132
0.000638333
0.000638479
0.0006387
0.000638835
0.000639077
0.000639207
0.000639463
0.000639591
0.000639862
0.000639994
0.000640277
0.000640438
0.000640721
0.000640999
0.000641269
0.000641725
0.000642338
0.000643072
0.000625611
0.000220828
0.00036733
0.000481325
0.000550128
0.000596192
0.000628744
0.000653329
0.000672072
0.000687043
0.000699112
0.000708841
0.000716942
0.000723795
0.000729566
0.000734452
0.000738674
0.000742383
0.000745648
0.000748514
0.000751032
0.000753262
0.000755262
0.000757075
0.000758725
0.00076023
0.0007616
0.000762846
0.000763982
0.000765019
0.000765971
0.00076685
0.000767665
0.000768424
0.000769134
0.000769799
0.000770423
0.000771007
0.000771556
0.000772071
0.000772556
0.00077301
0.000773439
0.000773841
0.000774222
0.000774582
0.000774924
0.000775248
0.000775559
0.000775854
0.00077614
0.000776416
0.000776687
0.000776949
0.000777209
0.000777462
0.000777719
0.000777972
0.000778233
0.00077849
0.000778763
0.000779031
0.000779323
0.000779609
0.000779876
0.000780074
0.000780295
0.000780489
0.000780724
0.000780913
0.000781166
0.000781343
0.00078162
0.000781781
0.000782086
0.000782243
0.000782564
0.000782723
0.00078307
0.000783234
0.000783619
0.000783799
0.000784253
0.00078448
0.000785099
0.000785416
0.000786547
0.000787219
0.000768697
0.000195092
0.000357556
0.000503487
0.000596619
0.000660745
0.00070699
0.000742487
0.000770019
0.000792334
0.000810585
0.000825534
0.000838142
0.000848931
0.000858131
0.000866019
0.000872908
0.000879007
0.000884421
0.000889215
0.000893467
0.000897265
0.000900694
0.000903816
0.000906672
0.000909286
0.000911678
0.000913866
0.00091587
0.00091771
0.000919406
0.000920977
0.000922438
0.000923802
0.000925079
0.000926276
0.000927401
0.000928456
0.000929449
0.000930381
0.000931259
0.000932083
0.000932861
0.000933593
0.000934286
0.000934939
0.00093556
0.000936148
0.00093671
0.000937242
0.000937754
0.000938244
0.000938721
0.000939178
0.000939626
0.000940056
0.000940486
0.000940901
0.000941323
0.000941731
0.000942154
0.000942563
0.000942997
0.000943416
0.0009438
0.000944083
0.000944395
0.000944667
0.000944991
0.000945253
0.000945597
0.000945842
0.000946216
0.000946441
0.000946851
0.000947068
0.000947506
0.000947728
0.000948203
0.000948436
0.000948974
0.000949225
0.00094988
0.000950171
0.000951068
0.000951471
0.000952891
0.000953888
0.000934963
0.000152639
0.000323566
0.000503418
0.000625894
0.000712678
0.000776372
0.000825898
0.000864821
0.000896718
0.000923091
0.000944954
0.000963578
0.000979653
0.000993494
0.00100548
0.00101603
0.00102543
0.00103383
0.00104132
0.00104801
0.00105403
0.00105949
0.00106448
0.00106906
0.00107328
0.00107715
0.0010807
0.00108397
0.00108698
0.00108977
0.00109236
0.00109477
0.00109703
0.00109915
0.00110114
0.00110301
0.00110477
0.00110642
0.00110798
0.00110945
0.00111083
0.00111213
0.00111336
0.00111452
0.00111562
0.00111667
0.00111765
0.0011186
0.00111949
0.00112035
0.00112117
0.00112196
0.00112272
0.00112345
0.00112416
0.00112486
0.00112553
0.0011262
0.00112685
0.00112751
0.00112814
0.0011288
0.00112944
0.00113001
0.00113043
0.00113089
0.00113129
0.00113176
0.00113215
0.00113264
0.001133
0.00113353
0.00113387
0.00113444
0.00113476
0.00113538
0.00113571
0.00113638
0.00113673
0.00113748
0.00113786
0.00113876
0.0011392
0.00114038
0.00114099
0.00114266
0.0011441
0.00112482
9.62317e-05
0.000260868
0.000472882
0.000629067
0.000743755
0.000829381
0.000896719
0.000950204
0.000994416
0.00103127
0.00106211
0.00108859
0.00111159
0.00113154
0.00114895
0.00116437
0.00117819
0.00119059
0.00120171
0.00121171
0.00122074
0.00122898
0.00123654
0.0012435
0.00124991
0.00125583
0.00126128
0.00126631
0.00127096
0.00127528
0.0012793
0.00128306
0.00128658
0.00128989
0.001293
0.00129593
0.00129869
0.00130129
0.00130374
0.00130605
0.00130822
0.00131028
0.00131223
0.00131407
0.00131581
0.00131746
0.00131903
0.00132052
0.00132194
0.0013233
0.0013246
0.00132585
0.00132705
0.00132821
0.00132932
0.00133041
0.00133145
0.00133249
0.00133349
0.0013345
0.00133547
0.00133647
0.00133743
0.00133828
0.00133891
0.00133959
0.00134019
0.00134087
0.00134145
0.00134214
0.0013427
0.00134343
0.00134395
0.00134474
0.00134524
0.00134609
0.00134658
0.00134752
0.00134803
0.00134906
0.00134962
0.00135082
0.00135147
0.00135297
0.00135384
0.0013558
0.00135765
0.00133807
3.47838e-05
0.000166828
0.00040033
0.000595142
0.000742983
0.000855764
0.000945467
0.00101736
0.00107724
0.00112746
0.0011698
0.00120637
0.00123831
0.00126616
0.00129061
0.00131239
0.00133197
0.00134962
0.00136551
0.00137986
0.00139288
0.00140481
0.00141577
0.0014259
0.00143526
0.00144391
0.00145191
0.00145931
0.00146618
0.00147257
0.00147853
0.00148412
0.00148936
0.00149429
0.00149893
0.00150331
0.00150743
0.00151132
0.001515
0.00151846
0.00152174
0.00152484
0.00152777
0.00153054
0.00153317
0.00153567
0.00153804
0.0015403
0.00154245
0.00154451
0.00154648
0.00154837
0.00155017
0.00155192
0.0015536
0.00155524
0.00155681
0.00155836
0.00155985
0.00156134
0.00156278
0.00156425
0.00156566
0.0015669
0.00156782
0.00156879
0.00156967
0.00157063
0.00157148
0.00157245
0.00157326
0.00157426
0.00157504
0.0015761
0.00157685
0.00157798
0.00157871
0.00157995
0.00158067
0.00158205
0.00158283
0.00158439
0.00158528
0.00158714
0.00158829
0.00159056
0.00159272
0.00157325
2.83088e-06
4.64761e-05
0.000271985
0.000509184
0.00069657
0.000841917
0.00095926
0.00105421
0.00113381
0.00120092
0.00125785
0.0013073
0.00135062
0.00138857
0.00142205
0.001452
0.00147901
0.00150342
0.00152548
0.00154545
0.00156366
0.00158037
0.00159579
0.00161005
0.00162325
0.00163548
0.00164681
0.00165733
0.0016671
0.00167622
0.00168475
0.00169275
0.00170026
0.00170734
0.00171402
0.00172031
0.00172626
0.00173187
0.00173717
0.00174219
0.00174692
0.00175141
0.00175566
0.00175969
0.0017635
0.00176714
0.00177058
0.00177388
0.00177701
0.00178001
0.00178286
0.00178561
0.00178824
0.00179078
0.00179322
0.00179559
0.00179786
0.0018001
0.00180225
0.00180439
0.00180645
0.00180853
0.00181054
0.00181227
0.00181358
0.00181492
0.00181616
0.00181748
0.00181867
0.00181998
0.00182112
0.00182245
0.00182355
0.00182492
0.00182599
0.00182743
0.00182848
0.00183002
0.00183106
0.00183275
0.00183382
0.00183572
0.00183689
0.00183908
0.00184057
0.00184307
0.00184545
0.00182676
1.01535e-07
1.70496e-06
8.58181e-05
0.00035279
0.000585334
0.000770138
0.000921266
0.00104446
0.00114868
0.00123692
0.00131222
0.00137793
0.00143567
0.00148641
0.00153137
0.00157173
0.00160822
0.00164125
0.00167117
0.00169836
0.00172321
0.00174608
0.00176721
0.00178679
0.00180494
0.00182178
0.00183741
0.00185194
0.00186547
0.00187812
0.00188997
0.0019011
0.00191158
0.00192145
0.00193076
0.00193956
0.00194787
0.00195573
0.00196315
0.00197018
0.00197682
0.00198312
0.00198909
0.00199476
0.00200013
0.00200524
0.0020101
0.00201474
0.00201916
0.00202339
0.00202742
0.00203129
0.00203499
0.00203857
0.00204199
0.00204531
0.0020485
0.00205162
0.00205462
0.00205759
0.00206044
0.0020633
0.00206607
0.00206842
0.0020702
0.002072
0.00207369
0.00207543
0.00207704
0.00207874
0.00208028
0.00208197
0.00208347
0.00208517
0.00208662
0.00208837
0.0020898
0.00209162
0.00209305
0.00209499
0.00209645
0.00209856
0.00210014
0.00210247
0.00210436
0.00210695
0.0021095
0.00209238
2.25421e-08
5.20705e-08
1.41743e-06
0.000102276
0.00038489
0.000616263
0.000808663
0.000966868
0.00110148
0.00121566
0.00131376
0.00139994
0.00147577
0.00154259
0.00160204
0.00165559
0.00170408
0.00174803
0.00178792
0.00182425
0.00185755
0.00188826
0.00191668
0.00194304
0.0019675
0.00199021
0.00201132
0.00203098
0.00204932
0.00206649
0.0020826
0.00209775
0.00211201
0.00212548
0.00213818
0.00215019
0.00216153
0.00217227
0.00218242
0.00219203
0.00220113
0.00220976
0.00221794
0.00222571
0.00223309
0.00224011
0.00224679
0.00225316
0.00225923
0.00226504
0.00227058
0.00227589
0.00228097
0.00228587
0.00229056
0.00229509
0.00229945
0.00230369
0.00230776
0.00231176
0.00231561
0.00231943
0.00232312
0.00232622
0.00232857
0.00233092
0.00233313
0.00233536
0.00233745
0.0023396
0.0023416
0.00234369
0.00234561
0.00234766
0.00234953
0.00235158
0.00235341
0.00235549
0.00235731
0.00235946
0.00236131
0.00236356
0.00236552
0.00236792
0.00237013
0.0023727
0.00237538
0.00236061
1.60387e-08
1.78323e-08
3.22904e-08
7.3808e-07
7.43208e-05
0.000339995
0.000591785
0.000791745
0.000964413
0.00111081
0.00123747
0.00134896
0.00144715
0.00153389
0.00161152
0.0016817
0.00174531
0.00180299
0.0018554
0.00190326
0.00194726
0.00198791
0.00202556
0.0020605
0.00209294
0.00212309
0.00215113
0.00217729
0.00220173
0.00222464
0.00224616
0.00226642
0.00228552
0.00230354
0.00232056
0.00233666
0.00235186
0.00236626
0.00237988
0.00239278
0.002405
0.0024166
0.00242759
0.00243805
0.00244797
0.00245743
0.00246642
0.002475
0.00248317
0.00249099
0.00249845
0.0025056
0.00251244
0.00251901
0.00252529
0.00253136
0.00253717
0.00254281
0.00254823
0.0025535
0.00255858
0.00256356
0.00256836
0.00257234
0.00257537
0.00257834
0.00258116
0.00258395
0.00258659
0.00258922
0.00259172
0.00259423
0.0025966
0.00259902
0.00260129
0.00260365
0.00260586
0.00260817
0.00261035
0.00261266
0.00261484
0.00261718
0.00261943
0.00262182
0.00262424
0.00262668
0.00262944
0.00261755
1.52744e-08
1.53798e-08
1.60199e-08
2.20351e-08
1.87682e-07
1.94324e-05
0.000198346
0.000473836
0.00070118
0.000885805
0.00104788
0.00119175
0.00131793
0.00142962
0.00152997
0.00162087
0.00170327
0.00177797
0.00184595
0.00190826
0.00196573
0.00201892
0.00206823
0.00211399
0.00215646
0.00219595
0.00223272
0.00226705
0.00229919
0.00232936
0.00235773
0.00238446
0.00240967
0.00243348
0.00245596
0.00247722
0.00249731
0.00251633
0.00253433
0.00255139
0.00256755
0.00258289
0.00259745
0.00261129
0.00262444
0.00263697
0.00264889
0.00266026
0.0026711
0.00268147
0.00269135
0.00270081
0.00270985
0.00271853
0.00272682
0.00273481
0.00274245
0.00274983
0.00275689
0.00276373
0.00277029
0.00277668
0.00278282
0.00278784
0.00279166
0.00279535
0.00279886
0.00280227
0.00280552
0.00280868
0.0028117
0.00281466
0.00281749
0.00282028
0.00282295
0.00282559
0.00282814
0.00283067
0.00283313
0.00283556
0.00283798
0.00284035
0.00284279
0.00284509
0.00284764
0.00284984
0.00285262
0.00284332
1.5209e-08
1.51278e-08
1.50898e-08
1.52408e-08
1.70674e-08
3.98943e-08
7.81888e-07
4.07585e-05
0.00022757
0.00047117
0.000695844
0.000884213
0.00104394
0.0011861
0.00131562
0.00143322
0.00153934
0.00163531
0.00172282
0.00180327
0.00187759
0.00194646
0.00201031
0.00206951
0.00212445
0.00217554
0.00222318
0.00226774
0.00230956
0.00234888
0.0023859
0.00242081
0.00245373
0.00248482
0.00251418
0.00254194
0.00256817
0.002593
0.0026165
0.00263878
0.00265989
0.00267993
0.00269896
0.00271707
0.00273427
0.00275067
0.00276628
0.00278118
0.00279537
0.00280893
0.00282187
0.00283424
0.00284605
0.00285735
0.00286814
0.00287849
0.00288837
0.00289785
0.00290691
0.00291561
0.00292393
0.00293194
0.00293961
0.00294578
0.00295047
0.00295494
0.00295917
0.00296322
0.00296706
0.00297074
0.00297423
0.00297758
0.00298076
0.00298383
0.00298675
0.00298956
0.00299225
0.00299484
0.00299734
0.00299973
0.00300208
0.00300427
0.00300654
0.00300851
0.00301081
0.00301243
0.00301503
0.00301114
1.52144e-08
1.51453e-08
1.51075e-08
1.50294e-08
1.50471e-08
1.53885e-08
1.80501e-08
4.23835e-08
5.33406e-07
1.696e-05
0.000134301
0.000329002
0.000535027
0.000733996
0.000911557
0.00106559
0.0012006
0.00132207
0.00143373
0.00153742
0.00163371
0.00172285
0.0018052
0.0018813
0.00195182
0.00201743
0.0020787
0.00213616
0.00219009
0.00224087
0.00228872
0.00233386
0.00237643
0.00241661
0.00245454
0.00249037
0.00252424
0.00255628
0.00258662
0.00261538
0.00264265
0.00266856
0.00269318
0.0027166
0.0027389
0.00276016
0.00278041
0.00279973
0.00281815
0.00283573
0.00285251
0.00286853
0.00288381
0.00289842
0.00291234
0.00292563
0.00293829
0.00295036
0.00296185
0.00297281
0.00298323
0.00299315
0.00300257
0.00301005
0.00301568
0.00302099
0.00302597
0.00303067
0.00303508
0.00303923
0.00304312
0.00304678
0.0030502
0.00305343
0.00305644
0.00305929
0.00306192
0.00306442
0.00306671
0.00306892
0.00307088
0.00307285
0.00307451
0.00307629
0.00307762
0.00307932
0.00308026
0.0030821
1.52243e-08
1.51778e-08
1.51515e-08
1.51006e-08
1.50721e-08
1.50299e-08
1.50559e-08
1.53206e-08
1.67957e-08
2.50149e-08
8.58198e-08
1.00545e-06
1.54524e-05
0.000102593
0.000245514
0.000403201
0.000570212
0.000736819
0.000894414
0.0010385
0.0011681
0.00128447
0.00138972
0.00148608
0.00157531
0.00165872
0.00173712
0.00181105
0.00188079
0.00194656
0.0020085
0.00206684
0.00212173
0.00217343
0.00222213
0.00226808
0.00231146
0.0023525
0.00239136
0.00242822
0.0024632
0.00249647
0.0025281
0.00255823
0.0025869
0.00261424
0.00264027
0.00266512
0.0026888
0.00271139
0.00273293
0.00275348
0.00277306
0.00279173
0.0028095
0.00282644
0.00284254
0.00285786
0.00287239
0.00288617
0.00289922
0.00291155
0.00292318
0.00293232
0.00293915
0.00294554
0.00295149
0.00295704
0.00296219
0.00296698
0.00297142
0.00297553
0.00297933
0.00298283
0.00298603
0.00298899
0.00299167
0.00299413
0.00299634
0.00299835
0.00300014
0.00300176
0.00300317
0.00300443
0.00300551
0.00300645
0.00300728
0.00301384
1.5231e-08
1.51999e-08
1.51824e-08
1.51485e-08
1.51319e-08
1.50985e-08
1.50835e-08
1.50544e-08
1.5059e-08
1.5156e-08
1.53832e-08
1.74148e-08
2.15066e-08
5.1338e-08
1.86422e-07
1.492e-06
1.18676e-05
6.12309e-05
0.000152711
0.000258543
0.00037277
0.000494465
0.000620426
0.000746834
0.000870223
0.000988164
0.00109911
0.00120246
0.00129813
0.00138653
0.00146822
0.00154392
0.00161428
0.00168001
0.00174162
0.00179964
0.00185443
0.00190637
0.00195567
0.00200259
0.00204725
0.00208985
0.00213045
0.00216921
0.00220617
0.00224144
0.00227507
0.00230715
0.00233771
0.00236684
0.00239457
0.00242097
0.00244608
0.00246995
0.00249261
0.00251413
0.00253452
0.00255383
0.00257207
0.00258929
0.00260549
0.00262069
0.00263492
0.00264597
0.00265418
0.00266177
0.00266878
0.00267523
0.00268117
0.00268659
0.00269155
0.00269605
0.00270013
0.00270379
0.00270708
0.00270998
0.00271256
0.00271479
0.00271673
0.00271835
0.00271973
0.0027208
0.0027217
0.00272228
0.00272278
0.00272291
0.00272339
0.00273528
1.52353e-08
1.52168e-08
1.5201e-08
1.51828e-08
1.51676e-08
1.51507e-08
1.51361e-08
1.51205e-08
1.51054e-08
1.50921e-08
1.50824e-08
1.50935e-08
1.51247e-08
1.53274e-08
1.56677e-08
1.69971e-08
1.95225e-08
2.80958e-08
5.13599e-08
1.39464e-07
5.41293e-07
2.47169e-06
1.06562e-05
3.55712e-05
8.33636e-05
0.000145628
0.000213555
0.00028489
0.000359594
0.000437436
0.000517692
0.000599418
0.000681574
0.000763241
0.000843568
0.000921928
0.000997778
0.0010708
0.00114071
0.00120742
0.00127086
0.00133108
0.00138811
0.00144209
0.00149311
0.00154136
0.00158692
0.00163
0.00167067
0.00170913
0.00174545
0.0017798
0.00181222
0.00184287
0.00187178
0.00189907
0.00192477
0.00194897
0.00197168
0.00199298
0.00201286
0.00203137
0.0020485
0.00206168
0.00207136
0.00208024
0.00208833
0.00209571
0.00210236
0.00210837
0.00211373
0.00211852
0.00212271
0.00212639
0.00212953
0.00213222
0.00213443
0.00213625
0.00213762
0.00213866
0.0021393
0.00213968
0.00213964
0.00213943
0.00213901
0.00213787
0.0021379
0.00215618
1.52393e-08
1.52292e-08
1.52223e-08
1.52114e-08
1.5205e-08
1.51949e-08
1.51889e-08
1.51794e-08
1.51738e-08
1.51649e-08
1.51587e-08
1.51503e-08
1.51454e-08
1.51402e-08
1.5141e-08
1.51481e-08
1.51641e-08
1.52163e-08
1.53092e-08
1.55237e-08
1.59233e-08
1.68113e-08
1.83508e-08
2.18876e-08
2.75184e-08
4.15245e-08
6.8584e-08
1.37965e-07
3.00021e-07
7.29856e-07
1.78372e-06
4.37579e-06
9.98272e-06
2.0968e-05
3.88917e-05
6.41986e-05
9.47096e-05
0.000128577
0.000163716
0.000199761
0.000236032
0.000272857
0.000309835
0.000347297
0.000384786
0.000422578
0.000460151
0.000497776
0.000534899
0.000571815
0.000607958
0.000643659
0.000678355
0.00071241
0.000745263
0.000777314
0.000807983
0.000837474
0.00086542
0.00089204
0.000916974
0.000940437
0.000962091
0.000978821
0.000991
0.0010022
0.00101227
0.00102144
0.00102956
0.00103687
0.00104322
0.00104884
0.00105359
0.00105769
0.001061
0.00106375
0.00106581
0.00106738
0.00106832
0.00106887
0.0010688
0.00106848
0.0010677
0.00106685
0.00106515
0.00106392
0.00106141
0.00108254
1.52416e-08
1.52389e-08
1.52352e-08
1.52323e-08
1.52289e-08
1.52263e-08
1.5223e-08
1.52205e-08
1.52175e-08
1.52152e-08
1.52122e-08
1.52101e-08
1.52073e-08
1.5205e-08
1.52022e-08
1.52002e-08
1.51978e-08
1.51964e-08
1.51952e-08
1.51956e-08
1.51969e-08
1.52009e-08
1.52084e-08
1.52263e-08
1.52511e-08
1.53051e-08
1.53724e-08
1.55145e-08