/*--------------------------------*- C++ -*----------------------------------*\
| =========                 |                                                 |
| \\      /  F ield         | OpenFOAM: The Open Source CFD Toolbox           |
|  \\    /   O peration     | Version:  v2006                                 |
|   \\  /    A nd           | Website:  www.openfoam.com                      |
|    \\/     M anipulation  |                                                 |
\*---------------------------------------------------------------------------*/
FoamFile
{
    version     2.0;
    format      ascii;
    class       volScalarField;
    location    "10000";
    object      nut;
}
// * * * * * * * * * * * * * * * * * * * * * * * * * * * * * * * * * * * * * //

dimensions      [0 2 -1 0 0 0 0];


internalField   nonuniform List<scalar> 
20540
(
1.08252e-06
0.000158084
1.10186e-06
0.000158329
1.15062e-06
0.000158887
1.24274e-06
0.000159801
1.39679e-06
0.000161071
1.63532e-06
0.000162607
1.97962e-06
0.000164156
2.43408e-06
0.000165196
2.95543e-06
0.000164957
3.41242e-06
0.000162402
3.5757e-06
0.000155918
3.1935e-06
0.000143252
2.21065e-06
0.000121343
1.02629e-06
8.6664e-05
2.73018e-07
3.96242e-05
5.12146e-08
5.01836e-06
2.13812e-08
2.60606e-07
1.65779e-08
3.02937e-08
1.5705e-08
1.7353e-08
1.52748e-08
1.54335e-08
1.52622e-08
1.53052e-08
1.52429e-08
1.52495e-08
1.52445e-08
1.5245e-08
1.52455e-08
1.52451e-08
1.52452e-08
1.52449e-08
1.52449e-08
1.52446e-08
1.52446e-08
1.52443e-08
1.52442e-08
1.52438e-08
1.52437e-08
1.52433e-08
1.5243e-08
1.52425e-08
1.52424e-08
1.52416e-08
1.52417e-08
1.5241e-08
1.52417e-08
1.52409e-08
1.52424e-08
1.52416e-08
1.5243e-08
1.52424e-08
1.52436e-08
1.52432e-08
1.52441e-08
1.52438e-08
1.52445e-08
1.52442e-08
1.52449e-08
1.52446e-08
1.52452e-08
1.52449e-08
1.52455e-08
1.5245e-08
1.52442e-08
1.52449e-08
1.52419e-08
1.52465e-08
1.52411e-08
1.52807e-08
1.52406e-08
1.54202e-08
1.53416e-08
1.62314e-08
1.57094e-08
2.0884e-08
1.83961e-08
8.31968e-08
2.6386e-08
1.3477e-06
1.11211e-07
1.8484e-05
5.25088e-07
6.43672e-05
1.47746e-06
0.000104614
2.60757e-06
0.000132236
3.35602e-06
0.000149411
3.52671e-06
0.000159175
3.25963e-06
0.00016398
2.78773e-06
0.000165641
2.29683e-06
0.00016545
1.88258e-06
0.000164242
1.57196e-06
0.000162693
1.35671e-06
0.000161218
1.217e-06
0.000160017
1.13284e-06
0.000159156
1.08794e-06
0.000158631
1.06999e-06
0.0001584
1.08513e-08
7.0833e-09
6.13993e-09
5.62729e-09
5.31076e-09
5.09842e-09
4.94644e-09
4.83051e-09
4.74054e-09
4.66896e-09
4.61024e-09
4.56145e-09
4.52227e-09
1.47656e-08
1.45806e-08
1.44094e-08
1.42574e-08
1.41223e-08
1.40013e-08
1.3892e-08
1.3793e-08
1.36908e-08
4.31774e-09
4.30322e-09
4.29263e-09
4.2839e-09
4.27591e-09
4.26858e-09
4.26184e-09
4.25561e-09
4.24986e-09
4.24454e-09
4.23962e-09
4.23507e-09
4.23085e-09
4.22694e-09
4.22477e-09
4.22378e-09
4.2194e-09
4.21685e-09
4.21781e-09
4.21311e-09
4.21082e-09
4.21242e-09
4.20957e-09
4.20844e-09
4.21206e-09
4.21031e-09
4.20939e-09
4.21493e-09
4.21025e-09
4.2105e-09
4.22025e-09
4.21588e-09
4.21553e-09
4.22158e-09
4.22319e-09
4.2299e-09
4.2374e-09
4.24732e-09
4.2567e-09
4.27008e-09
4.28341e-09
4.29696e-09
4.3138e-09
4.32795e-09
4.34318e-09
4.35949e-09
4.37687e-09
4.39534e-09
4.41499e-09
4.43575e-09
4.45791e-09
4.48107e-09
4.50611e-09
4.5318e-09
4.5604e-09
4.5887e-09
4.62221e-09
4.65312e-09
4.69406e-09
4.72859e-09
4.78039e-09
4.82642e-09
4.89248e-09
5.03919e-09
5.06089e-09
5.91765e-09
1.15052e-06
8.26111e-07
7.08056e-07
6.43548e-07
6.03608e-07
5.76839e-07
5.57725e-07
5.4317e-07
5.31877e-07
5.2289e-07
5.15516e-07
5.09382e-07
5.04507e-07
9.06402e-07
8.97133e-07
8.88137e-07
8.80143e-07
8.7304e-07
8.66676e-07
8.60935e-07
8.55731e-07
8.50533e-07
4.79448e-07
4.76745e-07
4.75291e-07
4.7417e-07
4.73143e-07
4.72201e-07
4.71333e-07
4.70533e-07
4.69794e-07
4.6911e-07
4.68479e-07
4.67894e-07
4.67354e-07
4.66853e-07
4.66845e-07
4.66978e-07
4.66132e-07
4.65777e-07
4.66102e-07
4.65351e-07
4.65081e-07
4.65464e-07
4.65249e-07
4.65255e-07
4.65841e-07
4.65464e-07
4.65317e-07
4.66436e-07
4.65567e-07
4.65559e-07
4.6716e-07
4.66174e-07
4.66049e-07
4.66788e-07
4.66807e-07
4.67707e-07
4.68817e-07
4.7013e-07
4.7099e-07
4.72691e-07
4.74356e-07
4.76222e-07
4.7869e-07
4.80509e-07
4.82443e-07
4.84499e-07
4.8668e-07
4.88984e-07
4.91421e-07
4.93978e-07
4.96692e-07
4.99509e-07
5.02536e-07
5.05617e-07
5.09023e-07
5.12365e-07
5.16287e-07
5.19877e-07
5.24543e-07
5.28497e-07
5.34116e-07
5.39361e-07
5.47306e-07
5.74009e-07
5.66605e-07
7.65837e-07
1.53177e-05
1.20674e-05
1.0322e-05
9.31687e-06
8.67091e-06
8.22486e-06
7.89897e-06
7.64584e-06
7.44608e-06
7.28473e-06
7.15062e-06
7.03788e-06
6.94246e-06
7.87502e-06
7.8035e-06
7.7349e-06
7.67356e-06
7.61899e-06
7.57007e-06
7.52589e-06
7.48581e-06
7.4482e-06
6.45085e-06
6.41331e-06
6.38713e-06
6.3649e-06
6.34451e-06
6.32575e-06
6.30843e-06
6.29243e-06
6.27761e-06
6.26388e-06
6.25117e-06
6.23938e-06
6.22846e-06
6.21832e-06
6.21045e-06
6.20342e-06
6.19388e-06
6.18669e-06
6.18179e-06
6.17409e-06
6.16862e-06
6.16557e-06
6.16119e-06
6.1593e-06
6.16201e-06
6.15966e-06
6.15728e-06
6.16208e-06
6.1594e-06
6.15923e-06
6.16742e-06
6.16796e-06
6.17267e-06
6.18192e-06
6.19159e-06
6.20603e-06
6.2232e-06
6.24361e-06
6.26669e-06
6.29484e-06
6.32777e-06
6.36195e-06
6.39416e-06
6.42422e-06
6.45588e-06
6.48943e-06
6.52484e-06
6.56212e-06
6.60132e-06
6.6423e-06
6.68541e-06
6.72998e-06
6.77729e-06
6.82526e-06
6.87735e-06
6.92836e-06
6.98626e-06
7.03966e-06
7.10508e-06
7.1614e-06
7.23302e-06
7.29847e-06
7.3906e-06
7.48571e-06
7.66486e-06
7.1804e-06
4.74354e-05
4.77149e-05
4.5605e-05
4.36308e-05
4.20992e-05
4.09063e-05
3.99648e-05
3.91849e-05
3.85417e-05
3.80018e-05
3.75378e-05
3.71385e-05
3.67919e-05
3.69389e-05
3.66731e-05
3.64329e-05
3.62189e-05
3.60274e-05
3.58545e-05
3.56974e-05
3.55542e-05
3.54231e-05
3.48627e-05
3.47458e-05
3.46448e-05
3.45537e-05
3.44697e-05
3.4392e-05
3.432e-05
3.42531e-05
3.41909e-05
3.41332e-05
3.40795e-05
3.40296e-05
3.39831e-05
3.39399e-05
3.39004e-05
3.38637e-05
3.38282e-05
3.37961e-05
3.37672e-05
3.3739e-05
3.37141e-05
3.36923e-05
3.36722e-05
3.36554e-05
3.3645e-05
3.3634e-05
3.36238e-05
3.36241e-05
3.36218e-05
3.36241e-05
3.36379e-05
3.36504e-05
3.36715e-05
3.37016e-05
3.3739e-05
3.37865e-05
3.3844e-05
3.39124e-05
3.39932e-05
3.40875e-05
3.4197e-05
3.43017e-05
3.4395e-05
3.4492e-05
3.45934e-05
3.47004e-05
3.4812e-05
3.49293e-05
3.50505e-05
3.51773e-05
3.53076e-05
3.54429e-05
3.55819e-05
3.57242e-05
3.58716e-05
3.60191e-05
3.61751e-05
3.63219e-05
3.64937e-05
3.66265e-05
3.68261e-05
3.68892e-05
3.72869e-05
3.65525e-05
3.92957e-05
2.83754e-05
8.46697e-05
9.43856e-05
9.547e-05
9.44362e-05
9.3213e-05
9.20747e-05
9.10895e-05
9.02091e-05
8.94515e-05
8.8791e-05
8.8204e-05
8.76887e-05
8.72346e-05
8.68028e-05
8.64362e-05
8.61069e-05
8.58121e-05
8.55463e-05
8.53045e-05
8.50832e-05
8.48804e-05
8.46946e-05
8.4548e-05
8.43911e-05
8.42475e-05
8.41155e-05
8.39934e-05
8.38801e-05
8.37747e-05
8.36766e-05
8.35852e-05
8.35002e-05
8.34211e-05
8.33475e-05
8.32789e-05
8.32151e-05
8.31554e-05
8.30999e-05
8.30483e-05
8.30003e-05
8.29556e-05
8.29147e-05
8.28768e-05
8.28424e-05
8.28118e-05
8.27843e-05
8.27619e-05
8.2745e-05
8.27302e-05
8.27224e-05
8.27191e-05
8.27218e-05
8.27342e-05
8.27536e-05
8.27806e-05
8.28189e-05
8.28683e-05
8.29297e-05
8.30044e-05
8.30938e-05
8.31999e-05
8.33231e-05
8.34655e-05
8.35983e-05
8.37149e-05
8.38403e-05
8.39705e-05
8.41082e-05
8.42501e-05
8.44001e-05
8.45526e-05
8.47139e-05
8.48753e-05
8.50463e-05
8.52155e-05
8.5394e-05
8.55687e-05
8.57523e-05
8.59326e-05
8.61066e-05
8.63144e-05
8.64404e-05
8.67256e-05
8.66246e-05
8.7434e-05
8.55207e-05
9.09263e-05
7.01215e-05
0.000120486
0.000142703
0.000149714
0.000151253
0.000151414
0.000151076
0.000150593
0.000150026
0.00014948
0.000148959
0.000148462
0.000148007
0.000147594
0.000147132
0.000146777
0.000146453
0.00014616
0.000145893
0.000145648
0.00014542
0.000145209
0.000145015
0.000144919
0.000144756
0.000144605
0.000144466
0.000144336
0.000144215
0.000144102
0.000143996
0.000143898
0.000143806
0.000143721
0.000143641
0.000143567
0.000143498
0.000143434
0.000143374
0.000143318
0.000143266
0.000143217
0.000143173
0.000143131
0.000143094
0.00014306
0.00014303
0.000143004
0.000142986
0.000142969
0.000142959
0.000142955
0.000142957
0.000142969
0.00014299
0.000143018
0.000143058
0.000143109
0.000143173
0.000143251
0.000143345
0.000143455
0.000143584
0.000143732
0.000143871
0.00014399
0.00014412
0.000144254
0.000144397
0.000144541
0.000144696
0.00014485
0.000145016
0.000145176
0.000145352
0.000145517
0.000145701
0.000145868
0.000146055
0.000146226
0.000146394
0.000146607
0.0001467
0.000147037
0.000146775
0.000147907
0.000145373
0.000151548
0.000130529
0.000152181
0.000188917
0.000204123
0.000209757
0.000212341
0.000213535
0.000214095
0.000214249
0.000214233
0.000214104
0.000213896
0.000213668
0.000213435
0.00021315
0.000212906
0.000212674
0.000212458
0.000212255
0.000212062
0.000211878
0.000211705
0.000211543
0.000211439
0.000211302
0.000211173
0.000211053
0.00021094
0.000210834
0.000210734
0.00021064
0.000210552
0.00021047
0.000210394
0.000210323
0.000210256
0.000210195
0.000210137
0.000210083
0.000210033
0.000209987
0.000209943
0.000209903
0.000209866
0.000209832
0.000209803
0.000209776
0.000209753
0.000209737
0.000209724
0.000209716
0.000209714
0.000209718
0.000209732
0.000209754
0.000209783
0.000209824
0.000209876
0.00020994
0.000210018
0.000210111
0.00021022
0.000210347
0.000210492
0.000210629
0.000210744
0.000210871
0.000211
0.000211139
0.000211278
0.000211428
0.000211573
0.000211735
0.000211884
0.000212056
0.000212207
0.000212386
0.000212535
0.000212719
0.00021287
0.000213028
0.000213237
0.000213298
0.000213665
0.000213318
0.000214575
0.000212097
0.000217515
0.000200135
0.000178432
0.000231771
0.000257624
0.000269139
0.000275421
0.000279086
0.000281399
0.000282816
0.000283759
0.000284362
0.000284717
0.00028494
0.000285073
0.000285111
0.00028511
0.000285082
0.00028504
0.000284987
0.000284921
0.000284846
0.000284766
0.000284687
0.000284632
0.000284561
0.000284492
0.000284426
0.000284361
0.000284298
0.000284237
0.000284178
0.000284122
0.00028407
0.000284021
0.000283976
0.000283933
0.000283894
0.000283857
0.000283823
0.000283791
0.000283761
0.000283733
0.000283708
0.000283685
0.000283664
0.000283646
0.00028363
0.000283617
0.000283612
0.000283607
0.000283608
0.000283614
0.000283625
0.000283645
0.000283673
0.000283708
0.000283753
0.000283809
0.000283877
0.000283957
0.000284052
0.000284161
0.000284288
0.000284432
0.000284567
0.000284679
0.000284803
0.000284928
0.000285064
0.000285196
0.000285343
0.000285479
0.000285638
0.000285774
0.000285944
0.000286079
0.000286257
0.000286388
0.000286571
0.000286704
0.000286858
0.000287058
0.000287107
0.000287486
0.000287148
0.000288337
0.000286419
0.000290361
0.000275733
0.000198112
0.000270085
0.000309536
0.000329139
0.000340756
0.000348139
0.00035319
0.00035665
0.000359186
0.000361037
0.000362378
0.000363406
0.000364204
0.000364803
0.000365259
0.000365621
0.000365916
0.000366156
0.000366343
0.000366487
0.0003666
0.000366692
0.000366779
0.000366847
0.000366904
0.000366951
0.000366988
0.000367017
0.00036704
0.000367058
0.000367073
0.000367086
0.000367097
0.000367108
0.000367118
0.000367128
0.000367137
0.000367146
0.000367154
0.000367162
0.000367169
0.000367176
0.000367184
0.000367191
0.0003672
0.00036721
0.000367221
0.000367237
0.000367254
0.000367274
0.000367298
0.000367327
0.000367363
0.000367406
0.000367454
0.000367512
0.000367579
0.000367658
0.000367747
0.00036785
0.000367965
0.000368098
0.000368245
0.000368384
0.000368496
0.000368621
0.000368743
0.00036888
0.000369007
0.000369156
0.000369283
0.000369445
0.000369569
0.000369742
0.000369863
0.000370047
0.000370161
0.000370352
0.000370468
0.000370634
0.000370816
0.000370885
0.000371253
0.000371025
0.000371989
0.000370922
0.000373301
0.000359551
0.000209892
0.000301904
0.000358504
0.000388868
0.000407837
0.000420519
0.000429588
0.000436131
0.000441134
0.000444966
0.000447904
0.00045026
0.000452175
0.000453714
0.000454962
0.000456007
0.0004569
0.000457662
0.000458306
0.000458851
0.000459319
0.000459729
0.000460099
0.000460428
0.000460721
0.000460982
0.000461214
0.000461421
0.000461605
0.000461772
0.000461923
0.000462063
0.000462193
0.000462314
0.000462427
0.000462533
0.000462632
0.000462725
0.000462812
0.000462893
0.000462969
0.000463042
0.00046311
0.000463175
0.000463237
0.000463297
0.000463355
0.000463416
0.000463475
0.000463536
0.000463597
0.000463661
0.00046373
0.000463804
0.000463881
0.000463967
0.000464059
0.000464162
0.000464272
0.000464396
0.000464529
0.000464679
0.000464839
0.00046499
0.000465108
0.000465241
0.000465366
0.00046551
0.000465637
0.000465795
0.000465918
0.000466091
0.000466208
0.000466394
0.000466506
0.000466704
0.000466811
0.000467019
0.000467125
0.000467325
0.000467481
0.000467612
0.000467945
0.000467919
0.000468588
0.000468409
0.000469636
0.000455257
0.000212119
0.000324423
0.000402175
0.000446485
0.000475247
0.000495148
0.000509814
0.000520754
0.000529344
0.000536113
0.000541467
0.000545865
0.000549522
0.000552543
0.000555062
0.000557215
0.000559087
0.000560713
0.000562119
0.000563338
0.000564409
0.000565362
0.000566223
0.000567001
0.000567704
0.000568339
0.000568912
0.00056943
0.000569899
0.000570329
0.000570724
0.00057109
0.00057143
0.000571749
0.000572046
0.000572325
0.000572585
0.00057283
0.000573058
0.000573273
0.000573474
0.000573664
0.000573842
0.00057401
0.00057417
0.000574323
0.000574468
0.000574611
0.000574747
0.000574881
0.000575012
0.000575143
0.000575273
0.000575407
0.000575539
0.000575678
0.000575819
0.00057597
0.000576123
0.00057629
0.00057646
0.000576649
0.000576841
0.000577022
0.000577159
0.000577312
0.000577452
0.000577618
0.000577756
0.000577936
0.000578067
0.000578265
0.000578385
0.000578601
0.000578717
0.000578945
0.000579059
0.000579302
0.000579417
0.000579672
0.000579811
0.000580068
0.000580317
0.00058056
0.000580994
0.000581524
0.000582293
0.000566519
0.00020319
0.000333963
0.000437028
0.000499014
0.000540505
0.000569946
0.00059212
0.000609052
0.000622605
0.000633501
0.000642306
0.000649658
0.000655866
0.000661086
0.000665513
0.000669349
0.000672716
0.000675676
0.000678268
0.000680546
0.000682569
0.000684385
0.000686034
0.000687534
0.000688898
0.000690139
0.000691266
0.000692294
0.000693232
0.000694096
0.000694893
0.000695634
0.000696324
0.00069697
0.000697575
0.000698142
0.000698672
0.000699171
0.000699638
0.000700077
0.000700488
0.000700876
0.00070124
0.000701585
0.000701911
0.000702221
0.000702513
0.000702796
0.000703066
0.000703327
0.000703577
0.000703822
0.00070406
0.000704297
0.000704527
0.000704761
0.00070499
0.000705227
0.00070546
0.000705706
0.000705949
0.000706212
0.000706471
0.000706712
0.00070689
0.000707088
0.000707264
0.000707474
0.000707645
0.000707871
0.00070803
0.000708278
0.000708423
0.000708696
0.000708836
0.000709124
0.000709266
0.000709578
0.000709724
0.000710072
0.000710233
0.000710644
0.000710854
0.000711417
0.000711724
0.000712753
0.000713467
0.000696762
0.000180469
0.000326197
0.000458219
0.000542117
0.000599849
0.000641635
0.000673628
0.000698482
0.000718665
0.000735134
0.000748652
0.000760082
0.000769846
0.000778161
0.000785303
0.000791551
0.000797083
0.000801983
0.000806317
0.00081016
0.0008136
0.000816709
0.000819543
0.000822133
0.0008245
0.000826664
0.000828641
0.000830452
0.000832114
0.00083365
0.000835072
0.000836398
0.000837635
0.000838794
0.00083988
0.000840899
0.000841856
0.000842754
0.000843598
0.000844391
0.000845137
0.000845839
0.000846501
0.000847126
0.000847717
0.000848279
0.000848809
0.000849317
0.000849802
0.000850267
0.000850711
0.000851142
0.000851555
0.000851962
0.000852354
0.000852743
0.000853119
0.000853501
0.00085387
0.000854252
0.000854622
0.000855014
0.000855394
0.000855739
0.000855995
0.000856275
0.000856521
0.000856812
0.000857048
0.000857357
0.000857579
0.000857914
0.000858117
0.000858485
0.000858681
0.000859075
0.000859276
0.000859705
0.000859915
0.000860403
0.000860632
0.000861229
0.0008615
0.000862326
0.000862712
0.000864022
0.000865042
0.00084798
0.000141982
0.0002964
0.000459429
0.000569799
0.000647915
0.00070543
0.000750047
0.000785168
0.000814001
0.000837792
0.000857554
0.000874426
0.000888967
0.000901472
0.000912318
0.000921882
0.000930402
0.000938001
0.000944769
0.000950816
0.000956262
0.000961209
0.000965736
0.000969891
0.000973702
0.0009772
0.00098041
0.000983363
0.000986085
0.000988607
0.00099095
0.000993139
0.000995185
0.000997105
0.000998906
0.0010006
0.00100219
0.00100369
0.0010051
0.00100642
0.00100767
0.00100885
0.00100995
0.00101101
0.001012
0.00101294
0.00101383
0.00101468
0.00101549
0.00101627
0.00101701
0.00101773
0.00101841
0.00101908
0.00101972
0.00102035
0.00102096
0.00102157
0.00102215
0.00102275
0.00102332
0.00102392
0.0010245
0.00102501
0.0010254
0.00102581
0.00102617
0.0010266
0.00102695
0.00102739
0.00102772
0.00102819
0.0010285
0.00102901
0.0010293
0.00102986
0.00103016
0.00103077
0.00103108
0.00103177
0.00103212
0.00103294
0.00103335
0.00103444
0.00103502
0.00103657
0.00103801
0.00102062
8.93308e-05
0.000240057
0.000433202
0.000574086
0.000677321
0.000754606
0.000815247
0.000863492
0.000903439
0.000936681
0.00096455
0.000988524
0.00100932
0.00102735
0.0010431
0.00105708
0.00106959
0.00108081
0.00109086
0.00109989
0.00110807
0.00111553
0.00112238
0.00112868
0.00113449
0.00113983
0.00114476
0.0011493
0.00115351
0.00115741
0.00116105
0.00116446
0.00116765
0.00117064
0.00117346
0.00117611
0.0011786
0.00118095
0.00118317
0.00118525
0.00118722
0.00118908
0.00119083
0.0011925
0.00119407
0.00119556
0.00119698
0.00119833
0.00119961
0.00120084
0.00120202
0.00120315
0.00120423
0.00120528
0.00120629
0.00120727
0.00120822
0.00120916
0.00121006
0.00121098
0.00121186
0.00121276
0.00121363
0.0012144
0.00121497
0.00121558
0.00121612
0.00121673
0.00121726
0.00121789
0.00121839
0.00121905
0.00121953
0.00122024
0.00122069
0.00122146
0.00122191
0.00122276
0.00122323
0.00122417
0.00122468
0.00122579
0.0012264
0.00122779
0.00122861
0.00123042
0.00123224
0.00121458
3.53152e-05
0.000155484
0.000369179
0.000545069
0.000678196
0.000779959
0.000860712
0.000925551
0.000979625
0.00102492
0.00106317
0.00109628
0.00112515
0.00115031
0.00117243
0.00119216
0.0012099
0.00122586
0.00124022
0.00125319
0.00126498
0.00127577
0.00128571
0.00129488
0.00130335
0.00131117
0.00131839
0.00132508
0.00133129
0.00133706
0.00134246
0.00134752
0.00135226
0.00135673
0.00136093
0.00136489
0.00136862
0.00137214
0.00137546
0.0013786
0.00138156
0.00138435
0.001387
0.0013895
0.00139188
0.00139414
0.00139628
0.00139832
0.00140027
0.00140213
0.00140391
0.00140562
0.00140725
0.00140884
0.00141035
0.00141183
0.00141326
0.00141466
0.00141601
0.00141736
0.00141867
0.00141999
0.00142127
0.00142239
0.00142323
0.0014241
0.0014249
0.00142577
0.00142654
0.00142741
0.00142815
0.00142906
0.00142977
0.00143072
0.00143141
0.00143243
0.0014331
0.00143423
0.00143489
0.00143615
0.00143687
0.0014383
0.00143913
0.00144085
0.00144193
0.00144405
0.00144615
0.00142856
3.54451e-06
4.79107e-05
0.000254982
0.000469406
0.000638162
0.000769258
0.000874862
0.000960473
0.00103234
0.00109285
0.00114428
0.00118902
0.00122818
0.00126246
0.00129275
0.00131987
0.00134433
0.00136641
0.00138634
0.0014044
0.00142088
0.00143601
0.00144998
0.00146289
0.00147484
0.00148589
0.00149613
0.00150563
0.00151447
0.00152272
0.00153043
0.00153768
0.00154448
0.00155089
0.00155693
0.00156264
0.00156801
0.00157309
0.00157788
0.00158241
0.00158669
0.00159074
0.00159458
0.00159822
0.00160167
0.00160495
0.00160807
0.00161104
0.00161387
0.00161658
0.00161917
0.00162166
0.00162404
0.00162634
0.00162854
0.00163069
0.00163275
0.00163477
0.00163672
0.00163866
0.00164052
0.00164241
0.00164423
0.0016458
0.00164698
0.0016482
0.00164933
0.00165052
0.0016516
0.00165278
0.00165382
0.00165502
0.00165603
0.00165727
0.00165825
0.00165955
0.00166051
0.00166192
0.00166287
0.00166442
0.0016654
0.00166715
0.00166824
0.00167025
0.00167167
0.00167397
0.00167628
0.00165937
1.3262e-07
2.22635e-06
8.45724e-05
0.000330556
0.000540041
0.000706658
0.000842535
0.00095361
0.00104767
0.00112721
0.00119524
0.00125467
0.00130684
0.00135267
0.00139335
0.00142989
0.00146292
0.00149279
0.00151983
0.00154441
0.00156691
0.00158762
0.00160676
0.00162448
0.0016409
0.00165613
0.00167025
0.00168339
0.00169563
0.00170707
0.0017178
0.00172788
0.00173736
0.0017463
0.00175473
0.0017627
0.00177021
0.00177732
0.00178403
0.00179038
0.00179638
0.00180208
0.00180747
0.00181259
0.00181744
0.00182207
0.00182646
0.00183065
0.00183465
0.00183847
0.00184212
0.00184563
0.00184898
0.00185221
0.00185531
0.00185832
0.00186121
0.00186404
0.00186676
0.00186944
0.00187203
0.00187462
0.00187713
0.00187926
0.00188088
0.00188251
0.00188404
0.00188562
0.00188708
0.00188862
0.00189003
0.00189156
0.00189292
0.00189447
0.00189579
0.00189738
0.00189869
0.00190035
0.00190166
0.00190343
0.00190478
0.00190671
0.00190819
0.00191033
0.00191211
0.0019145
0.00191694
0.00190144
2.40945e-08
6.38592e-08
1.73809e-06
9.98248e-05
0.000362262
0.000570427
0.000743242
0.000885894
0.00100727
0.00111017
0.00119882
0.00127672
0.0013452
0.00140556
0.00145935
0.00150782
0.00155169
0.00159143
0.00162747
0.00166033
0.00169048
0.00171829
0.00174402
0.00176788
0.00179
0.00181054
0.00182962
0.0018474
0.00186399
0.00187952
0.0018941
0.00190782
0.00192074
0.00193293
0.00194443
0.0019553
0.00196556
0.00197527
0.00198445
0.00199314
0.00200136
0.00200916
0.00201655
0.00202358
0.00203024
0.00203659
0.00204263
0.0020484
0.00205389
0.00205914
0.00206416
0.00206897
0.00207357
0.00207801
0.00208225
0.00208636
0.0020903
0.00209414
0.00209784
0.00210146
0.00210495
0.00210841
0.00211176
0.00211457
0.00211671
0.00211883
0.00212084
0.00212286
0.00212476
0.00212671
0.00212853
0.00213043
0.00213218
0.00213405
0.00213575
0.00213762
0.00213929
0.00214119
0.00214286
0.00214482
0.00214653
0.00214859
0.00215041
0.00215262
0.00215468
0.00215706
0.00215959
0.0021462
1.61315e-08
1.84512e-08
3.62269e-08
8.78254e-07
7.3594e-05
0.000325401
0.000550099
0.000730606
0.000886158
0.00101805
0.00113249
0.00123321
0.00132183
0.00140019
0.00147043
0.00153394
0.00159146
0.00164359
0.00169096
0.00173426
0.00177409
0.00181089
0.00184498
0.00187659
0.00190593
0.00193318
0.00195854
0.00198219
0.0020043
0.00202504
0.00204452
0.00206287
0.00208016
0.00209648
0.00211189
0.00212645
0.00214021
0.00215323
0.00216554
0.00217721
0.00218825
0.00219873
0.00220867
0.00221812
0.0022271
0.00223565
0.00224378
0.00225155
0.00225894
0.00226602
0.00227278
0.00227925
0.00228544
0.00229139
0.00229708
0.00230258
0.00230785
0.00231296
0.00231786
0.00232264
0.00232724
0.00233176
0.00233612
0.00233972
0.00234247
0.00234517
0.00234773
0.00235026
0.00235266
0.00235505
0.00235731
0.0023596
0.00236176
0.00236396
0.00236603
0.00236818
0.0023702
0.00237231
0.0023743
0.00237642
0.00237842
0.00238057
0.00238265
0.00238485
0.0023871
0.00238935
0.00239193
0.00238114
1.52785e-08
1.54119e-08
1.61979e-08
2.3301e-08
2.17992e-07
2.07968e-05
0.000197111
0.000448411
0.000651589
0.000817891
0.000964484
0.00109427
0.00120804
0.00130896
0.00139974
0.00148194
0.00155639
0.00162387
0.00168533
0.00174172
0.00179375
0.00184191
0.00188652
0.0019279
0.0019663
0.002002
0.00203525
0.00206631
0.00209539
0.0021227
0.00214839
0.00217259
0.00219542
0.00221697
0.00223731
0.00225655
0.00227472
0.00229192
0.00230819
0.00232362
0.00233823
0.0023521
0.00236526
0.00237778
0.00238967
0.002401
0.00241179
0.00242208
0.0024319
0.00244128
0.00245023
0.0024588
0.00246698
0.00247484
0.00248235
0.00248959
0.00249651
0.00250319
0.00250959
0.00251579
0.00252174
0.00252753
0.0025331
0.00253764
0.00254111
0.00254446
0.00254765
0.00255074
0.00255369
0.00255657
0.00255931
0.002562
0.00256458
0.00256711
0.00256954
0.00257195
0.00257428
0.00257659
0.00257883
0.00258107
0.00258328
0.00258546
0.0025877
0.00258982
0.00259217
0.00259421
0.00259679
0.00258829
1.52042e-08
1.5108e-08
1.5083e-08
1.52724e-08
1.73901e-08
4.40743e-08
9.59154e-07
4.25722e-05
0.00022518
0.000449622
0.000651586
0.000820112
0.000963923
0.00109257
0.00120977
0.00131596
0.00141172
0.00149837
0.00157752
0.0016503
0.00171758
0.0017799
0.00183763
0.00189114
0.00194079
0.00198698
0.00203007
0.0020704
0.00210826
0.00214386
0.00217738
0.00220898
0.00223878
0.00226692
0.00229348
0.00231858
0.0023423
0.00236475
0.00238599
0.00240613
0.00242522
0.00244335
0.00246056
0.00247694
0.00249251
0.00250735
0.00252147
0.00253496
0.00254781
0.00256009
0.0025718
0.00258301
0.0025937
0.00260394
0.00261371
0.00262309
0.00263204
0.00264063
0.00264884
0.00265672
0.00266427
0.00267153
0.00267848
0.00268409
0.00268834
0.0026924
0.00269624
0.00269992
0.00270341
0.00270676
0.00270993
0.00271299
0.00271589
0.00271868
0.00272135
0.00272392
0.00272637
0.00272875
0.00273103
0.00273323
0.00273539
0.00273742
0.0027395
0.00274133
0.00274345
0.00274497
0.00274736
0.00274363
1.5211e-08
1.51328e-08
1.5092e-08
1.50083e-08
1.50321e-08
1.54405e-08
1.85648e-08
4.69389e-08
6.42928e-07
1.85768e-05
0.000136769
0.000320992
0.000511023
0.00069099
0.00085016
0.000988111
0.00110953
0.00121928
0.00132041
0.00141435
0.00150146
0.001582
0.00165634
0.00172505
0.00178876
0.00184807
0.00190353
0.00195552
0.00200435
0.00205033
0.00209365
0.0021345
0.002173
0.00220935
0.00224363
0.00227603
0.00230664
0.00233561
0.00236303
0.00238903
0.0024137
0.00243714
0.00245941
0.00248062
0.00250081
0.00252006
0.00253839
0.00255589
0.00257257
0.00258849
0.00260368
0.00261819
0.00263203
0.00264526
0.00265786
0.0026699
0.00268135
0.00269229
0.00270269
0.00271261
0.00272204
0.00273103
0.00273956
0.00274634
0.00275144
0.00275625
0.00276076
0.00276502
0.00276902
0.00277278
0.00277631
0.00277964
0.00278274
0.00278568
0.00278841
0.002791
0.00279339
0.00279567
0.00279775
0.00279977
0.00280156
0.00280336
0.00280487
0.0028065
0.00280773
0.00280928
0.00281015
0.00281182
1.5222e-08
1.51717e-08
1.51394e-08
1.50848e-08
1.5051e-08
1.50078e-08
1.50408e-08
1.53513e-08
1.70628e-08
2.65066e-08
9.97498e-08
1.19697e-06
1.71053e-05
0.000105867
0.00024336
0.000392078
0.000546709
0.000698712
0.000841052
0.000970425
0.00108653
0.00119086
0.00128546
0.00137234
0.001453
0.00152855
0.00159961
0.00166662
0.00172979
0.00178932
0.00184533
0.00189804
0.00194762
0.00199431
0.00203828
0.00207979
0.00211898
0.00215607
0.00219121
0.00222455
0.00225621
0.00228632
0.00231496
0.00234224
0.0023682
0.00239295
0.00241653
0.00243903
0.00246048
0.00248094
0.00250044
0.00251905
0.00253677
0.00255367
0.00256976
0.00258509
0.00259966
0.00261352
0.00262667
0.00263914
0.00265094
0.0026621
0.00267263
0.0026809
0.00268709
0.00269287
0.00269826
0.00270328
0.00270795
0.00271229
0.00271631
0.00272004
0.00272348
0.00272666
0.00272957
0.00273225
0.00273469
0.00273693
0.00273894
0.00274078
0.00274241
0.00274389
0.00274517
0.00274633
0.00274732
0.00274819
0.00274895
0.00275472
1.52294e-08
1.51948e-08
1.51753e-08
1.51376e-08
1.51188e-08
1.50819e-08
1.50642e-08
1.50335e-08
1.50449e-08
1.51013e-08
1.56767e-08
1.68936e-08
2.49821e-08
4.8667e-08
2.48504e-07
1.66966e-06
1.36744e-05
6.49001e-05
0.000154681
0.00025667
0.000365361
0.00047964
0.000596557
0.000712738
0.000825239
0.000932093
0.00103214
0.00112502
0.00121084
0.00129007
0.0013633
0.00143123
0.00149446
0.00155361
0.00160915
0.00166154
0.00171109
0.00175809
0.00180275
0.00184528
0.00188578
0.00192439
0.00196121
0.00199635
0.00202985
0.0020618
0.00209225
0.00212129
0.00214895
0.0021753
0.00220037
0.00222425
0.00224694
0.00226851
0.00228898
0.00230842
0.00232684
0.00234428
0.00236076
0.00237631
0.00239095
0.00240468
0.00241753
0.00242752
0.00243493
0.0024418
0.00244814
0.00245397
0.00245934
0.00246425
0.00246873
0.0024728
0.0024765
0.00247981
0.00248279
0.00248542
0.00248776
0.00248978
0.00249155
0.00249301
0.00249427
0.00249525
0.00249607
0.0024966
0.00249706
0.00249718
0.00249763
0.00250822
1.52343e-08
1.52135e-08
1.51958e-08
1.51755e-08
1.51585e-08
1.51396e-08
1.51233e-08
1.51058e-08
1.5089e-08
1.50742e-08
1.5064e-08
1.50715e-08
1.51391e-08
1.52746e-08
1.58806e-08
1.69527e-08
2.06776e-08
2.9166e-08
5.84729e-08
1.64289e-07
6.53725e-07
2.9631e-06
1.22806e-05
3.89398e-05
8.72772e-05
0.000148475
0.00021445
0.000283257
0.000354733
0.000428641
0.000504255
0.000580733
0.00065713
0.000732651
0.000806561
0.000878343
0.000947553
0.00101395
0.00107733
0.00113766
0.00119491
0.00124915
0.00130044
0.00134894
0.00139474
0.00143802
0.00147888
0.00151749
0.00155396
0.00158843
0.001621
0.0016518
0.0016809
0.00170841
0.00173437
0.00175889
0.00178199
0.00180376
0.0018242
0.00184337
0.00186128
0.00187796
0.00189341
0.0019053
0.00191403
0.00192205
0.00192936
0.00193602
0.00194203
0.00194747
0.00195231
0.00195664
0.00196043
0.00196376
0.00196661
0.00196905
0.00197105
0.0019727
0.00197394
0.00197489
0.00197547
0.00197583
0.00197579
0.00197561
0.00197524
0.00197422
0.00197425
0.00199069
1.5238e-08
1.52249e-08
1.52164e-08
1.52023e-08
1.51945e-08
1.51813e-08
1.5174e-08
1.51617e-08
1.51549e-08
1.51434e-08
1.51362e-08
1.51254e-08
1.51196e-08
1.51127e-08
1.51141e-08
1.51203e-08
1.51458e-08
1.51932e-08
1.53185e-08
1.55436e-08
1.60341e-08
1.70181e-08
1.8824e-08
2.25818e-08
2.98208e-08
4.53069e-08
7.93603e-08
1.60889e-07
3.62922e-07
8.77885e-07
2.15848e-06
5.17855e-06
1.1612e-05
2.36178e-05
4.26706e-05
6.85006e-05
9.91467e-05
0.000132491
0.000167019
0.000202104
0.000237445
0.000273057
0.000308827
0.000344804
0.000380799
0.000416838
0.000452662
0.000488304
0.000523475
0.000558236
0.000592287
0.000625727
0.000658251
0.000689998
0.000720663
0.000750415
0.000778934
0.0008062
0.000832096
0.000856615
0.000879648
0.000901183
0.00092113
0.00093643
0.000947626
0.000957844
0.000967084
0.000975425
0.000982871
0.000989495
0.000995309
0.00100038
0.00100472
0.00100839
0.00101142
0.00101386
0.00101573
0.00101708
0.00101794
0.00101836
0.00101827
0.00101794
0.00101717
0.00101636
0.00101476
0.0010136
0.00101128
0.00103054
1.52406e-08
1.52373e-08
1.5232e-08
1.52284e-08
1.52234e-08
1.52202e-08
1.52155e-08
1.52125e-08
1.5208e-08
1.52052e-08
1.5201e-08
1.51984e-08
1.51944e-08
1.51914e-08
1.51876e-08
1.5185e-08
1.51818e-08
1.518e-08
1.51783e-08
1.51786e-08
1.51803e-08
1.51846e-08
1.51941e-08
1.52133e-08
1.52432e-08
1.53052e-08