/*--------------------------------*- C++ -*----------------------------------*\
| =========                 |                                                 |
| \\      /  F ield         | OpenFOAM: The Open Source CFD Toolbox           |
|  \\    /   O peration     | Version:  v2006                                 |
|   \\  /    A nd           | Website:  www.openfoam.com                      |
|    \\/     M anipulation  |                                                 |
\*---------------------------------------------------------------------------*/
FoamFile
{
    version     2.0;
    format      ascii;
    class       volScalarField;
    location    "11000";
    object      nut;
}
// * * * * * * * * * * * * * * * * * * * * * * * * * * * * * * * * * * * * * //

dimensions      [0 2 -1 0 0 0 0];


internalField   nonuniform List<scalar> 
184860
(
1.87624e-08
4.78406e-08
1.8845e-07
8.14231e-07
5.21953e-06
9.13924e-05
1.87797e-08
4.79437e-08
1.89015e-07
8.1658e-07
5.23685e-06
9.14735e-05
1.8816e-08
4.81635e-08
1.90216e-07
8.21549e-07
5.27283e-06
9.16335e-05
1.88732e-08
4.85142e-08
1.9213e-07
8.29418e-07
5.32862e-06
9.18664e-05
1.89529e-08
4.90115e-08
1.94839e-07
8.40469e-07
5.40513e-06
9.21623e-05
1.9057e-08
4.96716e-08
1.98428e-07
8.54984e-07
5.50284e-06
9.25076e-05
1.9187e-08
5.05115e-08
2.02983e-07
8.73225e-07
5.62172e-06
9.28851e-05
1.93445e-08
5.15486e-08
2.08591e-07
8.95424e-07
5.76105e-06
9.32746e-05
1.95305e-08
5.28004e-08
2.15329e-07
9.21756e-07
5.91924e-06
9.36525e-05
1.97458e-08
5.42832e-08
2.23266e-07
9.52312e-07
6.09363e-06
9.3992e-05
1.99909e-08
5.60115e-08
2.32444e-07
9.87055e-07
6.28028e-06
9.42624e-05
2.02654e-08
5.79965e-08
2.4287e-07
1.02577e-06
6.47378e-06
9.44293e-05
2.05681e-08
6.02439e-08
2.54501e-07
1.06802e-06
6.66714e-06
9.44544e-05
2.08968e-08
6.27514e-08
2.67217e-07
1.11306e-06
6.85167e-06
9.42956e-05
2.12478e-08
6.55054e-08
2.808e-07
1.15976e-06
7.01701e-06
9.39048e-05
2.1616e-08
6.84772e-08
2.94908e-07
1.2066e-06
7.15131e-06
9.32308e-05
2.19943e-08
7.16191e-08
3.09045e-07
1.25152e-06
7.24143e-06
9.22171e-05
2.23737e-08
7.48599e-08
3.22548e-07
1.29198e-06
7.27371e-06
9.08028e-05
2.27425e-08
7.81016e-08
3.3457e-07
1.32496e-06
7.2346e-06
8.89262e-05
2.30871e-08
8.12179e-08
3.441e-07
1.34704e-06
7.11134e-06
8.65344e-05
2.33911e-08
8.40563e-08
3.49988e-07
1.35457e-06
6.89344e-06
8.35741e-05
2.36366e-08
8.64439e-08
3.51064e-07
1.34406e-06
6.57393e-06
7.99932e-05
2.38044e-08
8.81458e-08
3.46366e-07
1.31241e-06
6.15079e-06
7.57437e-05
2.38751e-08
8.89104e-08
3.35221e-07
1.2575e-06
5.62837e-06
7.0786e-05
2.38311e-08
8.8498e-08
3.17411e-07
1.17882e-06
5.01856e-06
6.50955e-05
2.36579e-08
8.67123e-08
2.93308e-07
1.07786e-06
4.34137e-06
5.86719e-05
2.33465e-08
8.34347e-08
2.63947e-07
9.58118e-07
3.62542e-06
5.1554e-05
2.28956e-08
7.86763e-08
2.30994e-07
8.23994e-07
2.90879e-06
4.38374e-05
2.2313e-08
7.25925e-08
1.96405e-07
6.82443e-07
2.23155e-06
3.56978e-05
2.16163e-08
6.54902e-08
1.62136e-07
5.42344e-07
1.63017e-06
2.74488e-05
2.0833e-08
5.77977e-08
1.30077e-07
4.12594e-07
1.13144e-06
1.95741e-05
1.99984e-08
5.00056e-08
1.01764e-07
3.00526e-07
7.47706e-07
1.26899e-05
1.91526e-08
4.25896e-08
7.8148e-08
2.10538e-07
4.75526e-07
7.3452e-06
1.83368e-08
3.59372e-08
5.95169e-08
1.43507e-07
2.98605e-07
3.78199e-06
1.75886e-08
3.02994e-08
4.55774e-08
9.72874e-08
1.88702e-07
1.76746e-06
1.69382e-08
2.57797e-08
3.56552e-08
6.78491e-08
1.20167e-07
7.72779e-07
1.64046e-08
2.23593e-08
2.89311e-08
4.90121e-08
7.77226e-08
3.33961e-07
1.59941e-08
1.9944e-08
2.42907e-08
3.67597e-08
5.20025e-08
1.50398e-07
1.56997e-08
1.82785e-08
2.1096e-08
2.87741e-08
3.70397e-08
7.62304e-08
1.55041e-08
1.71227e-08
1.89748e-08
2.37277e-08
2.84852e-08
4.5357e-08
1.53833e-08
1.63409e-08
1.75798e-08
2.05621e-08
2.32722e-08
3.0985e-08
1.53134e-08
1.58457e-08
1.66469e-08
1.85038e-08
1.99991e-08
2.36624e-08
1.52751e-08
1.55613e-08
1.60368e-08
1.71893e-08
1.80532e-08
1.9972e-08
1.52569e-08
1.54104e-08
1.56784e-08
1.63916e-08
1.69035e-08
1.7956e-08
1.525e-08
1.5331e-08
1.54766e-08
1.58863e-08
1.61693e-08
1.67306e-08
1.52461e-08
1.52862e-08
1.53591e-08
1.55691e-08
1.57457e-08
1.60571e-08
1.52434e-08
1.52628e-08
1.5303e-08
1.54141e-08
1.55139e-08
1.56858e-08
1.52425e-08
1.52526e-08
1.52726e-08
1.53274e-08
1.53727e-08
1.5454e-08
1.5242e-08
1.52467e-08
1.52556e-08
1.52817e-08
1.53079e-08
1.53544e-08
1.52417e-08
1.52437e-08
1.52483e-08
1.52604e-08
1.52721e-08
1.53036e-08
1.52417e-08
1.52431e-08
1.52452e-08
1.52509e-08
1.52565e-08
1.5274e-08
1.52417e-08
1.52432e-08
1.52443e-08
1.52471e-08
1.52491e-08
1.52539e-08
1.52417e-08
1.52432e-08
1.52438e-08
1.52451e-08
1.5246e-08
1.52488e-08
1.52416e-08
1.52432e-08
1.52436e-08
1.52445e-08
1.52447e-08
1.52452e-08
1.52416e-08
1.52431e-08
1.52435e-08
1.52444e-08
1.52443e-08
1.5244e-08
1.52416e-08
1.52431e-08
1.52435e-08
1.52443e-08
1.52443e-08
1.52439e-08
1.52416e-08
1.52431e-08
1.52434e-08
1.52443e-08
1.52442e-08
1.52438e-08
1.52416e-08
1.52431e-08
1.52434e-08
1.52443e-08
1.52442e-08
1.52437e-08
1.52416e-08
1.5243e-08
1.52434e-08
1.52442e-08
1.52441e-08
1.52436e-08
1.52416e-08
1.5243e-08
1.52433e-08
1.52442e-08
1.52441e-08
1.52436e-08
1.52416e-08
1.5243e-08
1.52433e-08
1.52441e-08
1.5244e-08
1.52435e-08
1.52416e-08
1.5243e-08
1.52433e-08
1.5244e-08
1.52439e-08
1.52434e-08
1.52416e-08
1.52429e-08
1.52432e-08
1.5244e-08
1.52439e-08
1.52433e-08
1.52416e-08
1.52429e-08
1.52432e-08
1.52439e-08
1.52438e-08
1.52433e-08
1.52416e-08
1.52429e-08
1.52431e-08
1.52438e-08
1.52437e-08
1.52432e-08
1.52416e-08
1.52428e-08
1.52431e-08
1.52437e-08
1.52436e-08
1.52431e-08
1.52416e-08
1.52428e-08
1.5243e-08
1.52436e-08
1.52436e-08
1.5243e-08
1.52416e-08
1.52427e-08
1.5243e-08
1.52435e-08
1.52435e-08
1.52429e-08
1.52416e-08
1.52427e-08
1.52429e-08
1.52434e-08
1.52434e-08
1.52428e-08
1.52415e-08
1.52426e-08
1.52428e-08
1.52433e-08
1.52433e-08
1.52427e-08
1.52415e-08
1.52426e-08
1.52428e-08
1.52432e-08
1.52432e-08
1.52426e-08
1.52415e-08
1.52426e-08
1.52427e-08
1.52431e-08
1.52431e-08
1.52425e-08
1.52415e-08
1.52425e-08
1.52426e-08
1.5243e-08
1.5243e-08
1.52424e-08
1.52415e-08
1.52425e-08
1.52426e-08
1.52429e-08
1.52429e-08
1.52423e-08
1.52415e-08
1.52424e-08
1.52425e-08
1.52428e-08
1.52428e-08
1.52422e-08
1.52415e-08
1.52424e-08
1.52425e-08
1.52427e-08
1.52427e-08
1.52421e-08
1.52415e-08
1.52423e-08
1.52424e-08
1.52426e-08
1.52426e-08
1.5242e-08
1.52414e-08
1.52423e-08
1.52423e-08
1.52425e-08
1.52425e-08
1.52419e-08
1.52414e-08
1.52422e-08
1.52423e-08
1.52424e-08
1.52424e-08
1.52417e-08
1.52414e-08
1.52422e-08
1.52422e-08
1.52423e-08
1.52423e-08
1.52416e-08
1.52414e-08
1.52421e-08
1.52421e-08
1.52422e-08
1.52421e-08
1.52415e-08
1.52414e-08
1.52421e-08
1.52421e-08
1.52421e-08
1.52421e-08
1.52414e-08
1.52414e-08
1.5242e-08
1.52419e-08
1.5242e-08
1.52419e-08
1.52412e-08
1.52414e-08
1.5242e-08
1.52417e-08
1.52417e-08
1.52417e-08
1.5241e-08
1.52414e-08
1.52419e-08
1.52417e-08
1.52416e-08
1.52416e-08
1.52409e-08
1.52414e-08
1.52418e-08
1.52416e-08
1.52416e-08
1.52415e-08
1.52408e-08
1.52414e-08
1.52418e-08
1.52416e-08
1.52415e-08
1.52414e-08
1.52407e-08
1.52414e-08
1.52417e-08
1.52416e-08
1.52415e-08
1.52413e-08
1.52406e-08
1.52414e-08
1.52417e-08
1.52416e-08
1.52413e-08
1.52412e-08
1.52405e-08
1.52414e-08
1.52417e-08
1.52415e-08
1.52412e-08
1.5241e-08
1.52403e-08
1.52414e-08
1.52416e-08
1.52415e-08
1.52411e-08
1.52409e-08
1.52402e-08
1.52414e-08
1.52416e-08
1.52414e-08
1.52411e-08
1.52408e-08
1.52401e-08
1.52414e-08
1.52415e-08
1.52414e-08
1.52411e-08
1.52407e-08
1.52401e-08
1.52414e-08
1.52415e-08
1.52414e-08
1.52411e-08
1.52406e-08
1.52401e-08
1.52414e-08
1.52414e-08
1.52413e-08
1.52411e-08
1.52406e-08
1.52401e-08
1.52414e-08
1.52414e-08
1.52412e-08
1.5241e-08
1.52405e-08
1.524e-08
1.52413e-08
1.52412e-08
1.52411e-08
1.52408e-08
1.52403e-08
1.52399e-08
1.52413e-08
1.52412e-08
1.52411e-08
1.52408e-08
1.52403e-08
1.52399e-08
1.52414e-08
1.52414e-08
1.52412e-08
1.5241e-08
1.52405e-08
1.524e-08
1.52414e-08
1.52414e-08
1.52413e-08
1.52411e-08
1.52406e-08
1.52401e-08
1.52414e-08
1.52415e-08
1.52414e-08
1.52411e-08
1.52406e-08
1.52401e-08
1.52414e-08
1.52415e-08
1.52414e-08
1.52411e-08
1.52407e-08
1.524e-08
1.52414e-08
1.52416e-08
1.52414e-08
1.52411e-08
1.52408e-08
1.524e-08
1.52414e-08
1.52416e-08
1.52415e-08
1.52411e-08
1.52409e-08
1.52402e-08
1.52414e-08
1.52417e-08
1.52415e-08
1.52412e-08
1.5241e-08
1.52403e-08
1.52414e-08
1.52417e-08
1.52416e-08
1.52413e-08
1.52412e-08
1.52405e-08
1.52414e-08
1.52417e-08
1.52416e-08
1.52415e-08
1.52413e-08
1.52406e-08
1.52414e-08
1.52418e-08
1.52416e-08
1.52415e-08
1.52414e-08
1.52407e-08
1.52414e-08
1.52419e-08
1.52416e-08
1.52416e-08
1.52415e-08
1.52408e-08
1.52414e-08
1.52419e-08
1.52417e-08
1.52416e-08
1.52416e-08
1.52409e-08
1.52414e-08
1.5242e-08
1.52417e-08
1.52417e-08
1.52417e-08
1.5241e-08
1.52414e-08
1.5242e-08
1.52419e-08
1.5242e-08
1.52419e-08
1.52412e-08
1.52414e-08
1.52421e-08
1.5242e-08
1.52421e-08
1.5242e-08
1.52414e-08
1.52414e-08
1.52421e-08
1.52421e-08
1.52422e-08
1.52421e-08
1.52415e-08
1.52414e-08
1.52422e-08
1.52422e-08
1.52423e-08
1.52423e-08
1.52416e-08
1.52414e-08
1.52422e-08
1.52422e-08
1.52424e-08
1.52424e-08
1.52417e-08
1.52415e-08
1.52423e-08
1.52423e-08
1.52425e-08
1.52425e-08
1.52418e-08
1.52415e-08
1.52423e-08
1.52424e-08
1.52426e-08
1.52426e-08
1.52419e-08
1.52415e-08
1.52424e-08
1.52424e-08
1.52427e-08
1.52427e-08
1.52421e-08
1.52415e-08
1.52424e-08
1.52425e-08
1.52428e-08
1.52428e-08
1.52422e-08
1.52415e-08
1.52425e-08
1.52426e-08
1.52429e-08
1.52429e-08
1.52423e-08
1.52415e-08
1.52425e-08
1.52426e-08
1.5243e-08
1.5243e-08
1.52424e-08
1.52415e-08
1.52425e-08
1.52427e-08
1.52431e-08
1.52431e-08
1.52425e-08
1.52415e-08
1.52426e-08
1.52428e-08
1.52432e-08
1.52432e-08
1.52426e-08
1.52415e-08
1.52426e-08
1.52428e-08
1.52433e-08
1.52433e-08
1.52427e-08
1.52415e-08
1.52427e-08
1.52429e-08
1.52434e-08
1.52434e-08
1.52428e-08
1.52416e-08
1.52427e-08
1.52429e-08
1.52435e-08
1.52435e-08
1.52429e-08
1.52416e-08
1.52428e-08
1.5243e-08
1.52436e-08
1.52435e-08
1.5243e-08
1.52416e-08
1.52428e-08
1.52431e-08
1.52437e-08
1.52436e-08
1.52431e-08
1.52416e-08
1.52428e-08
1.52431e-08
1.52438e-08
1.52437e-08
1.52432e-08
1.52416e-08
1.52429e-08
1.52432e-08
1.52439e-08
1.52438e-08
1.52432e-08
1.52416e-08
1.52429e-08
1.52432e-08
1.52439e-08
1.52439e-08
1.52433e-08
1.52416e-08
1.52429e-08
1.52432e-08
1.5244e-08
1.52439e-08
1.52434e-08
1.52416e-08
1.5243e-08
1.52433e-08
1.52441e-08
1.5244e-08
1.52435e-08
1.52416e-08
1.5243e-08
1.52433e-08
1.52442e-08
1.52441e-08
1.52436e-08
1.52416e-08
1.5243e-08
1.52434e-08
1.52442e-08
1.52441e-08
1.52436e-08
1.52416e-08
1.52431e-08
1.52434e-08
1.52443e-08
1.52442e-08
1.52437e-08
1.52416e-08
1.52431e-08
1.52435e-08
1.52444e-08
1.52442e-08
1.52437e-08
1.52416e-08
1.52431e-08
1.52435e-08
1.52444e-08
1.52443e-08
1.52437e-08
1.52416e-08
1.52431e-08
1.52435e-08
1.52445e-08
1.52442e-08
1.52436e-08
1.52416e-08
1.52431e-08
1.52435e-08
1.52445e-08
1.5244e-08
1.52438e-08
1.52416e-08
1.52431e-08
1.52435e-08
1.52446e-08
1.52451e-08
1.52471e-08
1.52417e-08
1.52431e-08
1.52438e-08
1.52457e-08
1.5247e-08
1.52527e-08
1.52416e-08
1.52429e-08
1.52445e-08
1.52484e-08
1.52519e-08
1.52652e-08
1.52416e-08
1.52431e-08
1.52462e-08
1.52537e-08
1.52616e-08
1.52893e-08
1.52418e-08
1.52449e-08
1.52516e-08
1.52691e-08
1.52881e-08
1.53397e-08
1.52423e-08
1.52493e-08
1.52627e-08
1.52984e-08
1.53358e-08
1.5405e-08
1.52428e-08
1.52568e-08
1.5286e-08
1.53674e-08
1.54378e-08
1.55618e-08
1.52446e-08
1.52712e-08
1.53259e-08
1.54851e-08
1.56174e-08
1.58451e-08
1.52478e-08
1.53042e-08
1.54074e-08
1.57085e-08
1.59125e-08
1.63044e-08
1.52524e-08
1.53615e-08
1.55564e-08
1.60988e-08
1.64738e-08
1.72287e-08
1.52623e-08
1.54661e-08
1.58119e-08
1.67096e-08
1.73593e-08
1.87422e-08
1.52884e-08
1.5666e-08
1.62759e-08
1.76947e-08
1.8771e-08
2.13118e-08
1.5338e-08
1.60312e-08
1.70101e-08
1.93101e-08
2.12616e-08
2.63108e-08
1.54262e-08
1.66344e-08
1.81088e-08
2.17737e-08
2.52533e-08
3.58958e-08
1.5574e-08
1.755e-08
1.97541e-08
2.55988e-08
3.16098e-08
5.50513e-08
1.58057e-08
1.88749e-08
2.22747e-08
3.17837e-08
4.22557e-08
9.75569e-08
1.61425e-08
2.07765e-08
2.59767e-08
4.13123e-08
6.10278e-08
2.0184e-07
1.65974e-08
2.35445e-08
3.13169e-08
5.58164e-08
9.23783e-08
4.52104e-07
1.71722e-08
2.73443e-08
3.90719e-08
7.81171e-08
1.43154e-07
1.02984e-06
1.78557e-08
3.22429e-08
5.0286e-08
1.12997e-07
2.24157e-07
2.29169e-06
1.86253e-08
3.82176e-08
6.57217e-08
1.65972e-07
3.5311e-07
4.71721e-06
1.94484e-08
4.51164e-08
8.5922e-08
2.40381e-07
5.60171e-07
8.80052e-06
2.0287e-08
5.26455e-08
1.10987e-07
3.37384e-07
8.67369e-07
1.45936e-05
2.11009e-08
6.03923e-08
1.40413e-07
4.54947e-07
1.28678e-06
2.17483e-05
2.18525e-08
6.78816e-08
1.7307e-07
5.87737e-07
1.81668e-06
2.96947e-05
2.25097e-08
7.46492e-08
2.07326e-07
7.27979e-07
2.44016e-06
3.78613e-05
2.30488e-08
8.0311e-08
2.41294e-07
8.66888e-07
3.12765e-06
4.58264e-05
2.34555e-08
8.46119e-08
2.73112e-07
9.96141e-07
3.84207e-06
5.33291e-05
2.37251e-08
8.74443e-08
3.0089e-07
1.10983e-06
4.54464e-06
6.0216e-05
2.38611e-08
8.8833e-08
3.23169e-07
1.20417e-06
5.20004e-06
6.64078e-05
2.38739e-08
8.89216e-08
3.39119e-07
1.27607e-06
5.7834e-06
7.18773e-05
2.37784e-08
8.7912e-08
3.48541e-07
1.32464e-06
6.27737e-06
7.6631e-05
2.35924e-08
8.60433e-08
3.51767e-07
1.35076e-06
6.67233e-06
8.06972e-05
2.33346e-08
8.35579e-08
3.49533e-07
1.35682e-06
6.96566e-06
8.41168e-05
2.30235e-08
8.06699e-08
3.42828e-07
1.34592e-06
7.16054e-06
8.69376e-05
2.26762e-08
7.75432e-08
3.32796e-07
1.32152e-06
7.26458e-06
8.92107e-05
2.2308e-08
7.43211e-08
3.20528e-07
1.28713e-06
7.28848e-06
9.09883e-05
2.19318e-08
7.11204e-08
3.06978e-07
1.24599e-06
7.24492e-06
9.23214e-05
2.15583e-08
6.80311e-08
2.92932e-07
1.20096e-06
7.14702e-06
9.32714e-05
2.1196e-08
6.5118e-08
2.79007e-07
1.15443e-06
7.00804e-06
9.38971e-05
2.08515e-08
6.24242e-08
2.65657e-07
1.10829e-06
6.84052e-06
9.42523e-05
2.05295e-08
5.99748e-08
2.53195e-07
1.06397e-06
6.65576e-06
9.43866e-05
2.02333e-08
5.77813e-08
2.41817e-07
1.02251e-06
6.46357e-06
9.43457e-05
1.99648e-08
5.58447e-08
2.31629e-07
9.84571e-07
6.27219e-06
9.417e-05
1.97253e-08
5.41588e-08
2.22666e-07
9.50567e-07
6.0882e-06
9.38963e-05
1.95148e-08
5.27123e-08
2.14917e-07
9.2068e-07
5.91668e-06
9.35578e-05
1.93331e-08
5.14908e-08
2.08337e-07
8.9493e-07
5.76134e-06
9.31836e-05
1.91793e-08
5.04784e-08
2.0286e-07
8.73223e-07
5.62465e-06
9.27996e-05
1.90522e-08
4.96581e-08
1.98409e-07
8.55384e-07
5.5081e-06
9.24285e-05
1.89504e-08
4.9013e-08
1.94901e-07
8.41184e-07
5.41233e-06
9.20898e-05
1.88724e-08
4.85268e-08
1.92252e-07
8.30368e-07
5.33736e-06
9.17998e-05
1.88165e-08
4.81836e-08
1.90378e-07
8.22663e-07
5.28266e-06
9.15718e-05
1.8781e-08
4.79685e-08
1.89202e-07
8.17795e-07
5.24739e-06
9.14152e-05
1.87641e-08
4.78675e-08
1.88649e-07
8.15492e-07
5.2304e-06
9.13359e-05
1.28143e-09
7.6631e-10
6.86754e-10
6.36156e-10
5.99697e-10
5.72019e-10
5.50191e-10
5.32552e-10
5.17984e-10
5.05702e-10
4.9517e-10
4.8601e-10
4.77952e-10
4.70793e-10
4.6438e-10
4.58595e-10
4.53345e-10
4.48554e-10
4.44161e-10
4.40115e-10
4.36376e-10
4.32906e-10
4.29678e-10
4.26666e-10
4.23848e-10
4.21206e-10
4.18724e-10
4.16388e-10
4.14184e-10
4.12102e-10
4.10132e-10
4.08265e-10
4.06494e-10
4.04811e-10
4.03209e-10
4.01684e-10
4.0023e-10
3.98842e-10
3.97516e-10
3.96249e-10
3.95035e-10
3.93873e-10
3.92758e-10
3.91689e-10
3.90663e-10
3.89677e-10
3.88729e-10
3.87817e-10
3.8694e-10
3.86095e-10
3.8528e-10
3.84495e-10
3.83737e-10
3.83006e-10
3.823e-10
3.81618e-10
3.80958e-10
3.80321e-10
3.79705e-10
3.79108e-10
3.7853e-10
3.77971e-10
3.77429e-10
3.76904e-10
3.76395e-10
3.75901e-10
3.75422e-10
3.74957e-10
3.74506e-10
3.74068e-10
3.73642e-10
3.73229e-10
3.72827e-10
3.72436e-10
3.72056e-10
3.71687e-10
3.71328e-10
3.70978e-10
3.70637e-10
3.70306e-10
3.69983e-10
3.69669e-10
3.69363e-10
3.69065e-10
3.68774e-10
3.68491e-10
3.68215e-10
3.67945e-10
3.67683e-10
3.67426e-10
3.67176e-10
3.66932e-10
3.66694e-10
3.66462e-10
3.66235e-10
3.66014e-10
3.65798e-10
3.65586e-10
3.6538e-10
3.65179e-10
3.64982e-10
3.6479e-10
3.64602e-10
3.64419e-10
3.64239e-10
3.64064e-10
3.63893e-10
3.63726e-10
3.63563e-10
3.63403e-10
3.63248e-10
3.63095e-10
3.62947e-10
3.62802e-10
3.6266e-10
3.62522e-10
3.62388e-10
3.62256e-10
3.62129e-10
3.62004e-10
3.61883e-10
3.61765e-10
3.61651e-10
3.61539e-10
3.61432e-10
3.61327e-10
3.61226e-10
3.61129e-10
3.61035e-10
3.60944e-10
3.60858e-10
3.60775e-10
3.60696e-10
3.6062e-10
3.60549e-10
3.60482e-10
3.60419e-10
3.60361e-10
3.60307e-10
3.60257e-10
3.60213e-10
3.60174e-10
3.60139e-10
3.60111e-10
3.60087e-10
3.6007e-10
3.60059e-10
3.60054e-10
3.60056e-10
3.60064e-10
3.6008e-10
3.60104e-10
3.60135e-10
3.60174e-10
3.60221e-10
3.60278e-10
3.60344e-10
3.60419e-10
3.60504e-10
3.606e-10
3.60707e-10
3.60825e-10
3.60955e-10
3.61097e-10
3.61252e-10
3.6142e-10
3.61602e-10
3.61799e-10
3.62011e-10
3.62239e-10
3.62483e-10
3.62744e-10
3.63023e-10
3.6332e-10
3.63637e-10
3.63973e-10
3.64331e-10
3.6471e-10
3.65111e-10
3.65536e-10
3.65986e-10
3.66461e-10
3.66963e-10
3.67493e-10
3.68052e-10
3.68639e-10
3.6926e-10
3.69912e-10
3.70601e-10
3.71198e-10
3.71679e-10
3.72169e-10
3.72674e-10
3.7319e-10
3.73718e-10
3.74257e-10
3.74809e-10
3.75373e-10
3.75948e-10
3.76536e-10
3.77136e-10
3.77749e-10
3.78374e-10
3.79011e-10
3.79661e-10
3.80323e-10
3.80999e-10
3.81687e-10
3.82388e-10
3.83102e-10
3.83829e-10
3.8457e-10
3.85323e-10
3.86091e-10
3.86872e-10
3.87667e-10
3.88476e-10
3.893e-10
3.90138e-10
3.9099e-10
3.91858e-10
3.92741e-10
3.93639e-10
3.94553e-10
3.95484e-10
3.96431e-10
3.97395e-10
3.98377e-10
3.99377e-10
4.00395e-10
4.01433e-10
4.02491e-10
4.0357e-10
4.04671e-10
4.05794e-10
4.06942e-10
4.08115e-10
4.09314e-10
4.10543e-10
4.11801e-10
4.13093e-10
4.14419e-10
4.15786e-10
4.17191e-10
4.18649e-10
4.20149e-10
4.21721e-10
4.23334e-10
4.2506e-10
4.26812e-10
4.28757e-10
4.30681e-10
4.32963e-10
4.351e-10
4.37945e-10
4.40367e-10
4.44206e-10
4.47141e-10
4.52778e-10
4.57413e-10
4.66069e-10
4.78997e-10
5.00056e-10
5.28374e-10
7.31279e-08
4.46305e-08
3.92218e-08
3.58264e-08
3.33976e-08
3.15665e-08
3.01304e-08
2.89752e-08
2.80248e-08
2.72262e-08
2.65436e-08
2.59515e-08
2.5432e-08
2.49714e-08
2.45597e-08
2.41891e-08
2.38533e-08
2.35474e-08
2.32673e-08
2.30098e-08
2.2772e-08
2.25517e-08
2.2347e-08
2.21562e-08
2.19779e-08
2.18109e-08
2.16541e-08
2.15067e-08
2.13677e-08
2.12366e-08
2.11126e-08
2.09952e-08
2.08838e-08
2.07781e-08
2.06776e-08
2.05819e-08
2.04908e-08
2.04038e-08
2.03208e-08
2.02414e-08
2.01655e-08
2.00929e-08
2.00232e-08
1.99565e-08
1.98924e-08
1.98308e-08
1.97717e-08
1.97148e-08
1.96601e-08
1.96075e-08
1.95567e-08
1.95078e-08
1.94607e-08
1.94152e-08
1.93712e-08
1.93288e-08
1.92878e-08
1.92482e-08
1.92099e-08
1.91728e-08
1.9137e-08
1.91022e-08
1.90686e-08
1.9036e-08
1.90044e-08
1.89738e-08
1.89441e-08
1.89153e-08
1.88873e-08
1.88601e-08
1.88338e-08
1.88081e-08
1.87832e-08
1.87591e-08
1.87355e-08
1.87127e-08
1.86904e-08
1.86688e-08
1.86477e-08
1.86272e-08
1.86073e-08
1.85878e-08
1.85689e-08
1.85505e-08
1.85325e-08
1.8515e-08
1.84979e-08
1.84812e-08
1.8465e-08
1.84492e-08
1.84337e-08
1.84187e-08
1.8404e-08
1.83896e-08
1.83756e-08
1.83619e-08
1.83486e-08
1.83356e-08
1.83228e-08
1.83104e-08
1.82982e-08
1.82864e-08
1.82748e-08
1.82635e-08
1.82524e-08
1.82416e-08
1.82311e-08
1.82208e-08
1.82107e-08
1.82008e-08
1.81912e-08
1.81818e-08
1.81727e-08
1.81637e-08
1.8155e-08
1.81465e-08
1.81382e-08
1.81301e-08
1.81222e-08
1.81145e-08
1.8107e-08
1.80997e-08
1.80927e-08
1.80858e-08
1.80791e-08
1.80727e-08
1.80664e-08
1.80604e-08
1.80546e-08
1.8049e-08
1.80436e-08
1.80385e-08
1.80335e-08
1.80289e-08
1.80244e-08
1.80202e-08
1.80163e-08
1.80126e-08
1.80092e-08
1.80061e-08
1.80033e-08
1.80008e-08
1.79986e-08
1.79967e-08
1.79951e-08
1.79939e-08
1.79931e-08
1.79927e-08
1.79926e-08
1.7993e-08
1.79938e-08
1.7995e-08
1.79967e-08
1.79989e-08
1.80016e-08
1.80048e-08
1.80086e-08
1.80129e-08
1.80179e-08
1.80234e-08
1.80297e-08
1.80366e-08
1.80442e-08
1.80525e-08
1.80616e-08
1.80715e-08
1.80822e-08
1.80938e-08
1.81063e-08
1.81197e-08
1.81341e-08
1.81496e-08
1.8166e-08
1.81836e-08
1.82023e-08
1.82223e-08
1.82434e-08
1.82659e-08
1.82897e-08
1.83149e-08
1.83415e-08
1.83697e-08
1.83995e-08
1.84309e-08
1.8464e-08
1.84989e-08
1.85358e-08
1.85744e-08
1.86153e-08
1.86507e-08
1.86793e-08
1.87085e-08
1.87384e-08
1.87691e-08
1.88004e-08
1.88325e-08
1.88652e-08
1.88987e-08
1.89329e-08
1.89678e-08
1.90035e-08
1.90398e-08
1.9077e-08
1.91148e-08
1.91534e-08
1.91928e-08
1.92329e-08
1.92737e-08
1.93154e-08
1.93578e-08
1.9401e-08
1.94449e-08
1.94897e-08
1.95352e-08
1.95816e-08
1.96288e-08
1.96768e-08
1.97257e-08
1.97754e-08
1.9826e-08
1.98774e-08
1.99297e-08
1.9983e-08
2.00372e-08
2.00923e-08
2.01484e-08
2.02054e-08
2.02635e-08
2.03226e-08
2.03828e-08
2.04442e-08
2.05066e-08
2.05703e-08
2.06352e-08
2.07014e-08
2.07689e-08
2.08379e-08
2.09083e-08
2.09804e-08
2.10541e-08
2.11297e-08
2.12072e-08
2.12868e-08
2.13686e-08
2.14531e-08
2.154e-08
2.16305e-08
2.17234e-08
2.18219e-08
2.19222e-08
2.20318e-08
2.21408e-08
2.22673e-08
2.2387e-08
2.25409e-08
2.26742e-08
2.28754e-08
2.30315e-08
2.33165e-08
2.35421e-08
2.39688e-08
2.45097e-08
2.53645e-08
2.85093e-08
5.5752e-07
3.72241e-07
3.28056e-07
3.0005e-07
2.79924e-07
2.64706e-07
2.52747e-07
2.43108e-07
2.35165e-07
2.28484e-07
2.22768e-07
2.17807e-07
2.1345e-07
2.09586e-07
2.06131e-07
2.03019e-07
2.00198e-07
1.97628e-07
1.95274e-07
1.93109e-07
1.9111e-07
1.89257e-07
1.87535e-07
1.85929e-07
1.84429e-07
1.83024e-07
1.81704e-07
1.80463e-07
1.79294e-07
1.7819e-07
1.77146e-07
1.76157e-07
1.75219e-07
1.74329e-07
1.73482e-07
1.72676e-07
1.71908e-07
1.71176e-07
1.70476e-07
1.69808e-07
1.69168e-07
1.68556e-07
1.67969e-07
1.67406e-07
1.66866e-07
1.66348e-07
1.65849e-07
1.6537e-07
1.64909e-07
1.64465e-07
1.64037e-07
1.63625e-07
1.63227e-07
1.62844e-07
1.62473e-07
1.62116e-07
1.6177e-07
1.61436e-07
1.61113e-07
1.60801e-07
1.60498e-07
1.60206e-07
1.59922e-07
1.59647e-07
1.59381e-07
1.59122e-07
1.58872e-07
1.58629e-07
1.58393e-07
1.58164e-07
1.57942e-07
1.57726e-07
1.57516e-07
1.57312e-07
1.57113e-07
1.5692e-07
1.56733e-07
1.5655e-07
1.56373e-07
1.562e-07
1.56032e-07
1.55868e-07
1.55708e-07
1.55552e-07
1.55401e-07
1.55253e-07
1.55109e-07
1.54969e-07
1.54832e-07
1.54698e-07
1.54568e-07
1.54441e-07
1.54317e-07
1.54196e-07
1.54078e-07
1.53962e-07
1.5385e-07
1.5374e-07
1.53632e-07
1.53528e-07
1.53425e-07
1.53325e-07
1.53227e-07
1.53132e-07
1.53038e-07
1.52947e-07
1.52858e-07
1.52771e-07
1.52686e-07
1.52603e-07
1.52522e-07
1.52443e-07
1.52366e-07
1.5229e-07
1.52216e-07
1.52144e-07
1.52074e-07
1.52006e-07
1.51939e-07
1.51874e-07
1.51811e-07
1.5175e-07
1.5169e-07
1.51632e-07
1.51575e-07
1.51521e-07
1.51468e-07
1.51417e-07
1.51367e-07
1.5132e-07
1.51274e-07
1.5123e-07
1.51188e-07
1.51149e-07
1.51111e-07
1.51075e-07
1.51041e-07
1.5101e-07
1.5098e-07
1.50953e-07
1.50929e-07
1.50907e-07
1.50888e-07
1.50871e-07
1.50857e-07
1.50846e-07
1.50838e-07
1.50833e-07
1.50831e-07
1.50833e-07
1.50838e-07
1.50847e-07
1.50859e-07
1.50876e-07
1.50897e-07
1.50922e-07
1.50952e-07
1.50986e-07
1.51025e-07
1.5107e-07
1.51119e-07
1.51175e-07
1.51236e-07
1.51303e-07
1.51376e-07
1.51455e-07
1.51542e-07
1.51635e-07
1.51736e-07
1.51845e-07
1.51961e-07
1.52086e-07
1.52219e-07
1.52362e-07
1.52513e-07
1.52675e-07
1.52846e-07
1.53028e-07
1.53221e-07
1.53425e-07
1.53641e-07
1.53869e-07
1.54111e-07
1.54365e-07
1.54634e-07
1.54916e-07
1.55215e-07
1.55528e-07
1.55859e-07
1.56146e-07
1.56377e-07
1.56614e-07
1.56856e-07
1.57104e-07
1.57358e-07
1.57617e-07
1.57882e-07
1.58152e-07
1.58429e-07
1.58711e-07
1.58999e-07
1.59293e-07
1.59592e-07
1.59898e-07
1.60209e-07
1.60527e-07
1.6085e-07
1.6118e-07
1.61515e-07
1.61857e-07
1.62204e-07
1.62558e-07
1.62918e-07
1.63284e-07
1.63657e-07
1.64036e-07
1.64422e-07
1.64814e-07
1.65212e-07
1.65618e-07
1.6603e-07
1.66449e-07
1.66875e-07
1.67308e-07
1.67748e-07
1.68195e-07
1.68651e-07
1.69114e-07
1.69584e-07
1.70063e-07
1.7055e-07
1.71046e-07
1.71551e-07
1.72065e-07
1.72588e-07
1.73121e-07
1.73665e-07
1.7422e-07
1.74786e-07
1.75364e-07
1.75956e-07
1.76561e-07
1.77181e-07
1.77816e-07
1.7847e-07
1.79141e-07
1.79836e-07
1.80548e-07
1.81295e-07
1.82057e-07
1.82876e-07
1.83696e-07
1.84621e-07
1.85509e-07
1.866e-07
1.87571e-07
1.88938e-07
1.90032e-07
1.91881e-07
1.93274e-07
1.95998e-07
1.98515e-07
2.02772e-07
2.27693e-07
2.0915e-06
1.53756e-06
1.3678e-06
1.25592e-06
1.17463e-06
1.11274e-06
1.06387e-06
1.02433e-06
9.91649e-07
9.64101e-07
9.40487e-07
9.19962e-07
9.01916e-07
8.85893e-07
8.71552e-07
8.58625e-07
8.46901e-07
8.3621e-07
8.26415e-07
8.17399e-07
8.09071e-07
8.01351e-07
7.94171e-07
7.87477e-07
7.81219e-07
7.75355e-07
7.69848e-07
7.64667e-07
7.59783e-07
7.55171e-07
7.5081e-07
7.46679e-07
7.4276e-07
7.39039e-07
7.355e-07
7.3213e-07
7.28919e-07
7.25856e-07
7.2293e-07
7.20133e-07
7.17458e-07
7.14895e-07
7.1244e-07
7.10085e-07
7.07825e-07
7.05654e-07
7.03568e-07
7.01562e-07
6.99631e-07
6.97772e-07
6.95981e-07
6.94255e-07
6.9259e-07
6.90984e-07
6.89433e-07
6.87935e-07
6.86487e-07
6.85088e-07
6.83735e-07
6.82426e-07
6.81159e-07
6.79932e-07
6.78743e-07
6.77592e-07
6.76476e-07
6.75393e-07
6.74344e-07
6.73325e-07
6.72336e-07
6.71377e-07
6.70444e-07
6.69539e-07
6.68659e-07
6.67804e-07
6.66973e-07
6.66164e-07
6.65378e-07
6.64612e-07
6.63868e-07
6.63143e-07
6.62437e-07
6.6175e-07
6.6108e-07
6.60428e-07
6.59793e-07
6.59173e-07
6.58569e-07
6.57981e-07
6.57407e-07
6.56847e-07
6.563e-07
6.55767e-07
6.55247e-07
6.5474e-07
6.54244e-07
6.53761e-07
6.53288e-07
6.52827e-07
6.52377e-07
6.51937e-07
6.51507e-07
6.51087e-07
6.50677e-07
6.50277e-07
6.49885e-07
6.49503e-07
6.49129e-07
6.48764e-07
6.48407e-07
6.48059e-07
6.47719e-07
6.47386e-07
6.47061e-07
6.46744e-07
6.46435e-07
6.46133e-07
6.45838e-07
6.45551e-07
6.45271e-07
6.44998e-07
6.44732e-07
6.44474e-07
6.44222e-07
6.43978e-07
6.43741e-07
6.43511e-07
6.43288e-07
6.43072e-07
6.42864e-07
6.42664e-07
6.42471e-07
6.42286e-07
6.42109e-07
6.41939e-07
6.41779e-07
6.41626e-07
6.41483e-07
6.41348e-07
6.41223e-07
6.41107e-07
6.41001e-07
6.40906e-07
6.4082e-07
6.40746e-07
6.40684e-07
6.40633e-07
6.40594e-07
6.40568e-07
6.40555e-07
6.40557e-07
6.40572e-07
6.40602e-07
6.40648e-07
6.40711e-07
6.4079e-07
6.40886e-07
6.41001e-07
6.41135e-07
6.41289e-07
6.41464e-07
6.4166e-07
6.41878e-07
6.4212e-07
6.42386e-07
6.42678e-07
6.42995e-07
6.43341e-07
6.43714e-07
6.44118e-07
6.44552e-07
6.45019e-07
6.45519e-07
6.46053e-07
6.46624e-07
6.47233e-07
6.4788e-07
6.48568e-07
6.49299e-07
6.50073e-07
6.50893e-07
6.51761e-07
6.52678e-07
6.53647e-07
6.54669e-07
6.55747e-07
6.56883e-07
6.58081e-07
6.59339e-07
6.60667e-07
6.61814e-07
6.62743e-07
6.63693e-07
6.64664e-07
6.65658e-07
6.66674e-07
6.67713e-07
6.68774e-07
6.69858e-07
6.70964e-07
6.72094e-07
6.73246e-07
6.74421e-07
6.75619e-07
6.7684e-07
6.78085e-07
6.79352e-07
6.80643e-07
6.81958e-07
6.83296e-07
6.84657e-07
6.86043e-07
6.87452e-07
6.88886e-07
6.90344e-07
6.91826e-07
6.93332e-07
6.94864e-07
6.9642e-07
6.98002e-07
6.99609e-07
7.01241e-07
7.029e-07
7.04585e-07
7.06297e-07
7.08036e-07
7.09803e-07
7.11597e-07
7.1342e-07
7.15273e-07
7.17155e-07
7.19067e-07
7.21011e-07
7.22988e-07
7.24997e-07
7.27041e-07
7.2912e-07
7.31236e-07
7.33391e-07
7.35586e-07
7.37824e-07
7.40105e-07
7.42435e-07
7.44813e-07
7.47245e-07
7.49734e-07
7.52285e-07
7.54904e-07
7.57592e-07
7.60371e-07
7.63217e-07
7.66205e-07
7.69233e-07
7.72517e-07
7.75749e-07
7.79471e-07
7.82927e-07
7.87325e-07
7.91036e-07
7.96609e-07
8.00468e-07
8.08724e-07
8.11401e-07
8.22049e-07
8.87051e-07
5.36449e-06
4.38725e-06
3.98326e-06
3.6853e-06
3.46258e-06
3.29024e-06
3.15272e-06
3.04059e-06
2.9474e-06
2.86848e-06
2.8006e-06
2.74143e-06
2.68928e-06
2.6429e-06
2.60131e-06
2.56378e-06
2.52969e-06
2.49858e-06
2.47004e-06
2.44376e-06
2.41946e-06
2.39692e-06
2.37594e-06
2.35638e-06
2.33808e-06
2.32092e-06
2.3048e-06
2.28963e-06
2.27533e-06
2.26181e-06
2.24903e-06
2.23692e-06
2.22543e-06
2.21451e-06
2.20413e-06
2.19424e-06
2.18481e-06
2.17582e-06
2.16723e-06
2.15901e-06
2.15115e-06
2.14363e-06
2.13641e-06
2.12949e-06
2.12285e-06
2.11647e-06
2.11033e-06
2.10443e-06
2.09876e-06
2.09329e-06
2.08802e-06
2.08294e-06
2.07805e-06
2.07332e-06
2.06876e-06
2.06435e-06
2.06009e-06
2.05597e-06
2.05199e-06
2.04813e-06
2.0444e-06
2.04079e-06
2.03729e-06
2.0339e-06
2.03062e-06
2.02743e-06
2.02434e-06
2.02134e-06
2.01843e-06
2.0156e-06
2.01285e-06
2.01019e-06
2.0076e-06
2.00508e-06
2.00263e-06
2.00025e-06
1.99793e-06
1.99567e-06
1.99348e-06
1.99134e-06
1.98926e-06
1.98724e-06
1.98527e-06
1.98334e-06
1.98147e-06
1.97965e-06
1.97787e-06
1.97613e-06
1.97444e-06
1.97279e-06
1.97118e-06
1.96961e-06
1.96807e-06
1.96658e-06
1.96512e-06
1.96369e-06
1.9623e-06
1.96094e-06
1.95961e-06
1.95832e-06
1.95705e-06
1.95581e-06
1.9546e-06
1.95342e-06
1.95227e-06
1.95114e-06
1.95004e-06
1.94896e-06
1.94791e-06
1.94688e-06
1.94588e-06
1.94489e-06
1.94394e-06
1.943e-06
1.94209e-06
1.9412e-06
1.94033e-06
1.93948e-06
1.93865e-06
1.93784e-06
1.93706e-06
1.9363e-06
1.93555e-06
1.93483e-06
1.93413e-06
1.93345e-06
1.93279e-06
1.93215e-06
1.93153e-06
1.93094e-06
1.93036e-06
1.92981e-06
1.92929e-06
1.92878e-06
1.9283e-06
1.92785e-06
1.92742e-06
1.92701e-06
1.92663e-06
1.92628e-06
1.92596e-06
1.92567e-06
1.92541e-06
1.92518e-06
1.92498e-06
1.92482e-06
1.92469e-06
1.92459e-06
1.92454e-06
1.92453e-06
1.92455e-06
1.92462e-06
1.92473e-06
1.92489e-06
1.9251e-06
1.92536e-06
1.92567e-06
1.92603e-06
1.92645e-06
1.92693e-06
1.92747e-06
1.92808e-06
1.92875e-06
1.92949e-06
1.9303e-06
1.93119e-06
1.93215e-06
1.9332e-06
1.93432e-06
1.93554e-06
1.93685e-06
1.93825e-06
1.93975e-06
1.94136e-06
1.94306e-06
1.94488e-06
1.94682e-06
1.94887e-06
1.95105e-06
1.95336e-06
1.9558e-06
1.95838e-06
1.9611e-06
1.96398e-06
1.96701e-06
1.9702e-06
1.97357e-06
1.97711e-06
1.98084e-06
1.98406e-06
1.98667e-06
1.98934e-06
1.99207e-06
1.99485e-06
1.99771e-06
2.00062e-06
2.0036e-06
2.00664e-06
2.00974e-06
2.0129e-06
2.01613e-06
2.01942e-06
2.02277e-06
2.02619e-06
2.02967e-06
2.03321e-06
2.03682e-06
2.04049e-06
2.04423e-06
2.04803e-06
2.05189e-06
2.05582e-06
2.05981e-06
2.06387e-06
2.068e-06
2.07219e-06
2.07644e-06
2.08077e-06
2.08515e-06
2.08961e-06
2.09414e-06
2.09873e-06
2.10339e-06