/*--------------------------------*- C++ -*----------------------------------*\
| =========                 |                                                 |
| \\      /  F ield         | OpenFOAM: The Open Source CFD Toolbox           |
|  \\    /   O peration     | Version:  v2006                                 |
|   \\  /    A nd           | Website:  www.openfoam.com                      |
|    \\/     M anipulation  |                                                 |
\*---------------------------------------------------------------------------*/
FoamFile
{
    version     2.0;
    format      ascii;
    class       volScalarField;
    location    "10000";
    object      nut;
}
// * * * * * * * * * * * * * * * * * * * * * * * * * * * * * * * * * * * * * //

dimensions      [0 2 -1 0 0 0 0];


internalField   nonuniform List<scalar> 
20540
(
1.01309e-06
0.00015346
1.03046e-06
0.000153697
1.07432e-06
0.000154237
1.1572e-06
0.000155124
1.29588e-06
0.000156362
1.51085e-06
0.000157868
1.82185e-06
0.000159407
2.23423e-06
0.000160489
2.71139e-06
0.000160348
3.13735e-06
0.000157989
3.30396e-06
0.000151857
2.97685e-06
0.000139785
2.0923e-06
0.000118839
9.9859e-07
8.56636e-05
2.78046e-07
4.05083e-05
5.38936e-08
5.55076e-06
2.15471e-08
2.96293e-07
1.66317e-08
3.22986e-08
1.55618e-08
1.77152e-08
1.52504e-08
1.54911e-08
1.52484e-08
1.53275e-08
1.52414e-08
1.52509e-08
1.52448e-08
1.52451e-08
1.52455e-08
1.52451e-08
1.52453e-08
1.52449e-08
1.5245e-08
1.52447e-08
1.52446e-08
1.52443e-08
1.52442e-08
1.52438e-08
1.52437e-08
1.52433e-08
1.52431e-08
1.52424e-08
1.52424e-08
1.52415e-08
1.52417e-08
1.52409e-08
1.52417e-08
1.52409e-08
1.52424e-08
1.52415e-08
1.5243e-08
1.52424e-08
1.52437e-08
1.52432e-08
1.52442e-08
1.52438e-08
1.52446e-08
1.52442e-08
1.52449e-08
1.52446e-08
1.52453e-08
1.52449e-08
1.52456e-08
1.52449e-08
1.52444e-08
1.52449e-08
1.52425e-08
1.52459e-08
1.52506e-08
1.52705e-08
1.52758e-08
1.5363e-08
1.54552e-08
1.61288e-08
1.56924e-08
2.1382e-08
1.85631e-08
9.36224e-08
2.77602e-08
1.54356e-06
1.16467e-07
1.95332e-05
5.23907e-07
6.41168e-05
1.42036e-06
0.000102748
2.4535e-06
0.000129219
3.11938e-06
0.000145649
3.25427e-06
0.00015495
2.99568e-06
0.000159481
2.55841e-06
0.000160996
2.11003e-06
0.000160733
1.73442e-06
0.000159499
1.45387e-06
0.000157966
1.25985e-06
0.000156521
1.13402e-06
0.000155351
1.05827e-06
0.000154515
1.01788e-06
0.000154007
1.00175e-06
0.000153783
9.28684e-09
6.08013e-09
5.32629e-09
4.92545e-09
4.68318e-09
4.52425e-09
4.41259e-09
4.32908e-09
4.26556e-09
4.21598e-09
4.17609e-09
4.14358e-09
4.11679e-09
4.09433e-09
4.07525e-09
4.05893e-09
4.04491e-09
4.03279e-09
4.02221e-09
4.0129e-09
4.00466e-09
3.99735e-09
3.99085e-09
3.98504e-09
3.97985e-09
3.97517e-09
3.97095e-09
3.96711e-09
3.96362e-09
3.96044e-09
3.95886e-09
3.95915e-09
3.95912e-09
3.95451e-09
3.95208e-09
3.95512e-09
3.94942e-09
3.94738e-09
3.95152e-09
3.94593e-09
3.94433e-09
3.94937e-09
3.94468e-09
3.94422e-09
3.95243e-09
3.94883e-09
3.94693e-09
3.9552e-09
3.94785e-09
3.94729e-09
3.95876e-09
3.95876e-09
3.9674e-09
1.01146e-08
1.01606e-08
1.01472e-08
1.02115e-08
1.02633e-08
1.03062e-08
1.03769e-08
1.04403e-08
1.0536e-08
1.06367e-08
1.07322e-08
1.07933e-08
1.08835e-08
1.09704e-08
1.10626e-08
1.11601e-08
1.1263e-08
1.13714e-08
1.14851e-08
1.16053e-08
1.173e-08
1.18634e-08
1.19738e-08
1.1976e-08
4.31009e-09
4.25022e-09
4.29056e-09
4.29778e-09
4.32527e-09
4.36417e-09
4.46154e-09
1.32704e-08
1.40924e-08
1.40619e-08
5.22321e-09
9.84849e-07
6.99909e-07
6.05787e-07
5.55885e-07
5.25596e-07
5.05604e-07
4.91434e-07
4.80712e-07
4.72437e-07
4.65876e-07
4.60511e-07
4.56063e-07
4.52333e-07
4.49153e-07
4.46403e-07
4.44011e-07
4.41922e-07
4.40085e-07
4.38457e-07
4.37002e-07
4.35696e-07
4.34519e-07
4.33458e-07
4.32499e-07
4.3163e-07
4.30839e-07
4.30117e-07
4.29455e-07
4.28846e-07
4.28286e-07
4.27826e-07
4.27801e-07
4.27855e-07
4.27006e-07
4.26611e-07
4.26889e-07
4.26036e-07
4.25718e-07
4.26149e-07
4.25325e-07
4.25077e-07
4.25668e-07
4.24994e-07
4.2496e-07
4.2604e-07
4.25498e-07
4.25258e-07
4.26394e-07
4.25653e-07
4.25647e-07
4.26924e-07
4.26751e-07
4.2734e-07
6.63455e-07
6.66579e-07
6.66264e-07
6.69154e-07
6.71322e-07
6.73423e-07
6.76679e-07
6.79688e-07
6.84003e-07
6.88552e-07
6.92698e-07
6.95526e-07
6.99346e-07
7.03288e-07
7.0747e-07
7.11883e-07
7.16537e-07
7.2143e-07
7.26553e-07
7.31945e-07
7.37531e-07
7.43485e-07
7.4832e-07
7.4955e-07
4.87015e-07
4.73268e-07
4.78e-07
4.77961e-07
4.82288e-07
4.86697e-07
5.0033e-07
7.93877e-07
8.29289e-07
8.37245e-07
6.67156e-07
1.31421e-05
1.01646e-05
8.69045e-06
7.85407e-06
7.32001e-06
6.95349e-06
6.68635e-06
6.47944e-06
6.31661e-06
6.18526e-06
6.07631e-06
5.98491e-06
5.90743e-06
5.84069e-06
5.78248e-06
5.73144e-06
5.68655e-06
5.64683e-06
5.61138e-06
5.57952e-06
5.55075e-06
5.52473e-06
5.50116e-06
5.47976e-06
5.46028e-06
5.44248e-06
5.42616e-06
5.41114e-06
5.39728e-06
5.38448e-06
5.37279e-06
5.36326e-06
5.35455e-06
5.34374e-06
5.3351e-06
5.32884e-06
5.31969e-06
5.31285e-06
5.30848e-06
5.30078e-06
5.29546e-06
5.2931e-06
5.28709e-06
5.2844e-06
5.28575e-06
5.28114e-06
5.27896e-06
5.28302e-06
5.28037e-06
5.27959e-06
5.28415e-06
5.28434e-06
5.28695e-06
5.98613e-06
6.01147e-06
6.01505e-06
6.03246e-06
6.04663e-06
6.06334e-06
6.08301e-06
6.10486e-06
6.13202e-06
6.16243e-06
6.18918e-06
6.20957e-06
6.23557e-06
6.26283e-06
6.29173e-06
6.32217e-06
6.35423e-06
6.38782e-06
6.42297e-06
6.45978e-06
6.49788e-06
6.53823e-06
6.57578e-06
6.60167e-06
6.02261e-06
5.99168e-06
6.03576e-06
6.07582e-06
6.12542e-06
6.18473e-06
6.26535e-06
6.90377e-06
7.00499e-06
7.21357e-06
6.2168e-06
4.27326e-05
4.25267e-05
4.04931e-05
3.86336e-05
3.71983e-05
3.60869e-05
3.52104e-05
3.44865e-05
3.38908e-05
3.33911e-05
3.29627e-05
3.25949e-05
3.22765e-05
3.19967e-05
3.17486e-05
3.15282e-05
3.13323e-05
3.11571e-05
3.0999e-05
3.08556e-05
3.07251e-05
3.06063e-05
3.04981e-05
3.03993e-05
3.03089e-05
3.02259e-05
3.01493e-05
3.00785e-05
3.00129e-05
2.9952e-05
2.98955e-05
2.98437e-05
2.97957e-05
2.97495e-05
2.97074e-05
2.96691e-05
2.96317e-05
2.95978e-05
2.95673e-05
2.9537e-05
2.951e-05
2.94865e-05
2.9463e-05
2.94431e-05
2.94277e-05
2.94117e-05
2.93981e-05
2.93918e-05
2.9384e-05
2.93802e-05
2.93848e-05
2.93865e-05
2.93948e-05
2.97624e-05
2.97962e-05
2.98253e-05
2.98651e-05
2.99099e-05
2.99638e-05
3.00277e-05
3.01029e-05
3.01908e-05
3.02933e-05
3.03889e-05
3.04699e-05
3.0559e-05
3.06522e-05
3.07506e-05
3.08533e-05
3.09612e-05
3.10727e-05
3.11894e-05
3.13094e-05
3.14338e-05
3.1562e-05
3.1691e-05
3.18239e-05
3.16634e-05
3.17579e-05
3.18977e-05
3.20474e-05
3.21727e-05
3.23543e-05
3.24182e-05
3.30184e-05
3.23791e-05
3.48001e-05
2.49857e-05
7.83008e-05
8.68961e-05
8.78454e-05
8.68235e-05
8.56327e-05
8.45334e-05
8.358e-05
8.27297e-05
8.19992e-05
8.13617e-05
8.07962e-05
8.03006e-05
7.98639e-05
7.94726e-05
7.91201e-05
7.88039e-05
7.85205e-05
7.82649e-05
7.80324e-05
7.78196e-05
7.76247e-05
7.74465e-05
7.72836e-05
7.71345e-05
7.69976e-05
7.68714e-05
7.67545e-05
7.6646e-05
7.65452e-05
7.64513e-05
7.6364e-05
7.62829e-05
7.62074e-05
7.6137e-05
7.60715e-05
7.60107e-05
7.59539e-05
7.59009e-05
7.58518e-05
7.58059e-05
7.57633e-05
7.57242e-05
7.56882e-05
7.56553e-05
7.56261e-05
7.56013e-05
7.55793e-05
7.55622e-05
7.55501e-05
7.55422e-05
7.55412e-05
7.5544e-05
7.55547e-05
7.55787e-05
7.56052e-05
7.56446e-05
7.56929e-05
7.57517e-05
7.58245e-05
7.59108e-05
7.60133e-05
7.61321e-05
7.62718e-05
7.64043e-05
7.65174e-05
7.66388e-05
7.6765e-05
7.68982e-05
7.70356e-05
7.71807e-05
7.73283e-05
7.74843e-05
7.76405e-05
7.78057e-05
7.79696e-05
7.81412e-05
7.83096e-05
7.84706e-05
7.86377e-05
7.8807e-05
7.90027e-05
7.91256e-05
7.9392e-05
7.93059e-05
8.0061e-05
7.82777e-05
8.32941e-05
6.36183e-05
0.000113105
0.000133682
0.000140369
0.000141823
0.000141959
0.000141624
0.000141144
0.000140587
0.000140053
0.000139541
0.000139054
0.000138611
0.000138208
0.000137834
0.000137489
0.000137175
0.00013689
0.00013663
0.00013639
0.000136168
0.000135963
0.000135774
0.000135601
0.000135442
0.000135296
0.00013516
0.000135034
0.000134916
0.000134806
0.000134704
0.000134608
0.000134519
0.000134436
0.000134359
0.000134287
0.000134221
0.000134158
0.0001341
0.000134046
0.000133996
0.000133948
0.000133905
0.000133865
0.000133829
0.000133795
0.000133768
0.000133743
0.000133723
0.00013371
0.0001337
0.000133697
0.0001337
0.000133711
0.000133679
0.000133703
0.000133744
0.000133794
0.000133856
0.000133933
0.000134025
0.000134133
0.000134259
0.000134406
0.000134546
0.000134665
0.000134792
0.000134924
0.000135064
0.000135206
0.000135358
0.000135509
0.000135672
0.00013583
0.000136002
0.000136165
0.000136343
0.000136508
0.000136716
0.000136883
0.000137051
0.000137253
0.000137345
0.000137662
0.00013742
0.000138464
0.000136051
0.000141917
0.000121513
0.000144166
0.000178673
0.000193305
0.00019872
0.0002012
0.000202352
0.000202883
0.000203025
0.000203005
0.000202873
0.000202667
0.000202444
0.000202216
0.000201979
0.000201742
0.000201516
0.000201306
0.000201108
0.00020092
0.000200741
0.000200572
0.000200415
0.000200269
0.000200135
0.00020001
0.000199894
0.000199784
0.000199681
0.000199583
0.000199492
0.000199407
0.000199328
0.000199254
0.000199185
0.00019912
0.000199061
0.000199005
0.000198953
0.000198904
0.000198859
0.000198817
0.000198778
0.000198742
0.00019871
0.00019868
0.000198656
0.000198634
0.000198617
0.000198606
0.000198598
0.000198597
0.000198603
0.000198615
0.000198606
0.000198632
0.000198673
0.000198724
0.000198786
0.000198862
0.000198953
0.00019906
0.000199184
0.000199327
0.000199463
0.000199577
0.000199701
0.000199828
0.000199964
0.000200099
0.000200247
0.000200388
0.000200547
0.000200692
0.000200859
0.000201007
0.000201181
0.000201326
0.00020152
0.000201666
0.000201822
0.000202018
0.00020208
0.000202426
0.0002021
0.000203277
0.000200908
0.000206092
0.000189159
0.000170033
0.000220385
0.000245291
0.000256364
0.000262402
0.000265935
0.000268155
0.000269516
0.000270421
0.000270995
0.000271335
0.000271548
0.000271675
0.000271724
0.000271722
0.000271694
0.000271654
0.000271601
0.000271536
0.000271463
0.000271386
0.00027131
0.000271237
0.000271168
0.000271102
0.000271037
0.000270974
0.000270913
0.000270854
0.000270797
0.000270743
0.000270693
0.000270646
0.000270602
0.000270561
0.000270523
0.000270488
0.000270455
0.000270424
0.000270395
0.000270368
0.000270344
0.000270321
0.000270301
0.000270283
0.000270269
0.000270258
0.00027025
0.000270248
0.000270249
0.000270256
0.000270268
0.000270286
0.000270301
0.000270333
0.000270378
0.000270432
0.000270498
0.000270575
0.000270668
0.000270774
0.000270897
0.000271037
0.00027117
0.000271279
0.0002714
0.000271521
0.000271653
0.000271781
0.000271924
0.000272056
0.00027221
0.000272342
0.000272506
0.000272637
0.000272809
0.000272935
0.000273119
0.000273244
0.000273396
0.000273582
0.000273632
0.000273989
0.00027367
0.000274791
0.000272957
0.000276742
0.000262558
0.00018955
0.000257667
0.000295621
0.000314445
0.000325595
0.000332698
0.000337542
0.000340861
0.000343297
0.000345068
0.000346354
0.000347341
0.000348107
0.000348684
0.000349121
0.000349469
0.000349753
0.000349982
0.00035016
0.000350297
0.000350406
0.000350495
0.000350571
0.000350636
0.00035069
0.000350735
0.000350771
0.000350798
0.00035082
0.000350837
0.000350851
0.000350864
0.000350875
0.000350886
0.000350896
0.000350906
0.000350915
0.000350923
0.000350931
0.000350938
0.000350945
0.000350952
0.000350959
0.000350966
0.000350974
0.000350985
0.000350996
0.00035101
0.000351027
0.000351047
0.000351072
0.000351101
0.000351134
0.000351172
0.000351217
0.000351274
0.000351339
0.000351415
0.000351501
0.000351601
0.000351712
0.00035184
0.000351983
0.000352117
0.000352225
0.000352346
0.000352464
0.000352596
0.000352719
0.000352862
0.000352985
0.00035314
0.00035326
0.000353427
0.000353544
0.000353719
0.000353829
0.000354015
0.000354125
0.000354287
0.000354456
0.000354523
0.000354871
0.000354657
0.000355571
0.000354548
0.000356849
0.000343596
0.000201429
0.000288659
0.000343033
0.000372157
0.000390341
0.000402518
0.000411206
0.000417479
0.000422277
0.000425942
0.000428757
0.000431018
0.000432854
0.000434326
0.000435522
0.000436525
0.000437382
0.000438111
0.000438727
0.000439248
0.000439696
0.00044009
0.000440442
0.000440757
0.000441038
0.000441289
0.00044151
0.000441708
0.000441884
0.000442043
0.000442189
0.000442323
0.000442448
0.000442565
0.000442673
0.000442776
0.000442871
0.00044296
0.000443043
0.000443121
0.000443194
0.000443263
0.000443328
0.00044339
0.000443449
0.000443508
0.000443565
0.000443621
0.000443679
0.000443738
0.000443798
0.000443862
0.000443926
0.000443997
0.00044407
0.000444153
0.000444242
0.000444341
0.000444447
0.000444566
0.000444694
0.000444839
0.000444993
0.000445138
0.000445252
0.000445379
0.0004455
0.000445639
0.000445761
0.000445912
0.000446031
0.000446196
0.000446309
0.000446488
0.000446595
0.000446785
0.000446886
0.000447087
0.000447188
0.000447381
0.000447526
0.000447654
0.00044797
0.000447946
0.000448588
0.000448412
0.000449619
0.000435821
0.000204069
0.000310698
0.000385319
0.000427788
0.000455336
0.000474427
0.000488467
0.000498945
0.000507176
0.00051365
0.000518778
0.000522994
0.000526495
0.000529384
0.000531796
0.00053386
0.000535654
0.00053721
0.000538554
0.00053972
0.000540745
0.000541659
0.000542483
0.000543228
0.000543901
0.000544509
0.000545056
0.000545551
0.000546001
0.000546412
0.00054679
0.000547141
0.000547468
0.000547773
0.000548058
0.000548325
0.000548575
0.000548809
0.000549028
0.000549233
0.000549426
0.000549607
0.000549777
0.000549939
0.000550091
0.000550238
0.000550378
0.000550513
0.000550645
0.000550773
0.0005509
0.000551027
0.00055115
0.000551279
0.000551406
0.000551539
0.000551675
0.00055182
0.000551967
0.000552127
0.000552291
0.000552472
0.000552657
0.00055283
0.000552962
0.000553109
0.000553243
0.000553402
0.000553535
0.000553707
0.000553833
0.000554023
0.000554138
0.000554345
0.000554456
0.000554675
0.000554783
0.000555016
0.000555126
0.000555372
0.000555503
0.000555751
0.000555988
0.000556222
0.000556646
0.000557146
0.000557927
0.000542824
0.000195888
0.00032027
0.000419142
0.000478532
0.000518253
0.000546477
0.000567695
0.000583907
0.000596888
0.000607309
0.000615738
0.000622783
0.000628725
0.000633716
0.000637954
0.000641629
0.000644855
0.000647686
0.000650165
0.000652343
0.000654278
0.000656019
0.000657597
0.000659033
0.000660338
0.000661525
0.000662603
0.000663584
0.000664482
0.000665308
0.000666071
0.000666781
0.000667442
0.000668061
0.00066864
0.000669183
0.000669691
0.000670168
0.000670615
0.000671034
0.000671428
0.000671798
0.000672147
0.000672476
0.000672787
0.000673083
0.000673365
0.000673634
0.000673893
0.000674143
0.000674383
0.00067462
0.000674847
0.000675075
0.000675295
0.000675519
0.000675739
0.000675966
0.000676189
0.000676426
0.000676659
0.000676911
0.000677159
0.00067739
0.00067756
0.00067775
0.000677919
0.00067812
0.000678284
0.0006785
0.000678654
0.000678891
0.00067903
0.000679291
0.000679425
0.000679701
0.000679837
0.000680135
0.000680276
0.000680611
0.000680766
0.000681161
0.000681364
0.000681906
0.000682208
0.000683199
0.000683929
0.000667948
0.000174346
0.000313204
0.000439889
0.000520264
0.000575522
0.000615566
0.000646174
0.000669966
0.000689293
0.000705043
0.000717983
0.000728933
0.000738278
0.00074623
0.000753066
0.000759052
0.000764349
0.000769038
0.000773181
0.000776857
0.000780148
0.000783126
0.000785839
0.000788318
0.000790583
0.000792651
0.000794541
0.000796272
0.000797862
0.00079933
0.000800692
0.000801961
0.000803145
0.000804255
0.000805295
0.000806271
0.000807186
0.000808045
0.000808852
0.00080961
0.000810323
0.000810994
0.000811626
0.000812224
0.000812788
0.000813325
0.000813834
0.000814319
0.000814782
0.000815228
0.000815653
0.000816068
0.000816463
0.000816853
0.000817228
0.0008176
0.000817961
0.000818327
0.000818681
0.000819047
0.000819401
0.000819776
0.00082014
0.000820471
0.000820716
0.000820984
0.00082122
0.000821498
0.000821725
0.00082202
0.000822233
0.000822554
0.000822749
0.000823101
0.000823288
0.000823667
0.000823859
0.00082427
0.000824473
0.000824942
0.000825163
0.000825738
0.000826002
0.000826801
0.000827179
0.000828447
0.000829475
0.000813157
0.000137299
0.000284903
0.000441517
0.000547271
0.000622034
0.000677139
0.00071982
0.000753437
0.000781044
0.000803798
0.000822716
0.000838877
0.000852795
0.000864756
0.000875138
0.000884298
0.000892458
0.000899729
0.000906202
0.000911986
0.000917197
0.000921936
0.00092627
0.000930246
0.000933893
0.000937238
0.000940307
0.00094313
0.000945733
0.000948145
0.000950388
0.000952483
0.000954442
0.00095628
0.000958004
0.000959625
0.000961147
0.000962579
0.000963925
0.000965192
0.000966384
0.000967509
0.000968569
0.000969573
0.000970521
0.000971422
0.000972276
0.00097309
0.000973866
0.00097461
0.00097532
0.000976007
0.000976662
0.000977302
0.000977916
0.00097852
0.000979101
0.000979683
0.000980243
0.000980814
0.000981364
0.000981936
0.000982488
0.000982982
0.000983348
0.000983742
0.000984093
0.000984495
0.000984831
0.000985252
0.00098557
0.00098602
0.000986318
0.000986809
0.00098709
0.000987628
0.000987912
0.000988496
0.000988799
0.000989459
0.000989795
0.000990591
0.000990991
0.000992049
0.000992614
0.000994114
0.000995551
0.000978916
8.54181e-05
0.000230789
0.000416861
0.000551935
0.000650746
0.000724781
0.000782788
0.000828965
0.00086721
0.000899005
0.000925685
0.000948648
0.000968558
0.000985801
0.00100088
0.00101427
0.00102625
0.00103699
0.0010466
0.00105525
0.00106307
0.00107022
0.00107678
0.00108281
0.00108836
0.00109348
0.00109819
0.00110253
0.00110655
0.00111029
0.00111377
0.00111703
0.00112009
0.00112296
0.00112565
0.00112819
0.00113058
0.00113282
0.00113494
0.00113694
0.00113882
0.00114059
0.00114227
0.00114386
0.00114536
0.00114679
0.00114814
0.00114943
0.00115066
0.00115184
0.00115296
0.00115405
0.00115508
0.00115609
0.00115705
0.001158
0.0011589
0.0011598
0.00116067
0.00116154
0.00116238
0.00116325
0.00116408
0.00116482
0.00116537
0.00116595
0.00116647
0.00116706
0.00116756
0.00116816
0.00116864
0.00116927
0.00116973
0.00117041
0.00117085
0.00117159
0.00117202
0.00117284
0.00117328
0.00117419
0.00117469
0.00117576
0.00117635
0.00117769
0.00117849
0.00118026
0.00118207
0.00116516
3.51058e-05
0.000149967
0.000355999
0.000524767
0.000652225
0.000749703
0.000826944
0.000889004
0.00094077
0.000984092
0.00102072
0.00105243
0.00108006
0.00110414
0.00112532
0.00114422
0.0011612
0.00117648
0.00119022
0.00120263
0.00121392
0.00122426
0.00123378
0.00124256
0.00125066
0.00125814
0.00126505
0.00127145
0.00127738
0.00128291
0.00128808
0.00129292
0.00129747
0.00130174
0.00130576
0.00130956
0.00131313
0.0013165
0.00131967
0.00132267
0.0013255
0.00132817
0.0013307
0.0013331
0.00133537
0.00133752
0.00133957
0.00134153
0.00134339
0.00134517
0.00134687
0.00134851
0.00135008
0.00135159
0.00135304
0.00135446
0.00135583
0.00135717
0.00135846
0.00135976
0.00136101
0.00136228
0.00136351
0.00136457
0.00136538
0.00136621
0.00136698
0.00136781
0.00136854
0.00136938
0.00137009
0.00137096
0.00137164
0.00137256
0.00137321
0.0013742
0.00137484
0.00137593
0.00137657
0.00137778
0.00137848
0.00137985
0.00138066
0.00138233
0.00138338
0.00138543
0.00138752
0.00137067
3.85345e-06
4.7504e-05
0.000247026
0.000453022
0.000614629
0.000740214
0.000841223
0.000923166
0.000991964
0.00104984
0.00109909
0.00114194
0.00117942
0.00121223
0.00124123
0.00126721
0.00129064
0.00131177
0.00133084
0.00134813
0.00136391
0.00137841
0.00139178
0.00140415
0.00141558
0.00142616
0.00143595
0.00144505
0.0014535
0.0014614
0.00146878
0.00147572
0.00148224
0.00148838
0.00149416
0.00149962
0.00150476
0.00150962
0.00151421
0.00151854
0.00152263
0.00152651
0.00153018
0.00153366
0.00153696
0.0015401
0.00154308
0.00154593
0.00154863
0.00155123
0.00155371
0.00155609
0.00155837
0.00156057
0.00156268
0.00156474
0.00156671
0.00156865
0.00157051
0.00157237
0.00157416
0.00157596
0.00157771
0.00157921
0.00158035
0.00158151
0.00158259
0.00158373
0.00158477
0.0015859
0.0015869
0.00158805
0.00158902
0.00159021
0.00159115
0.0015924
0.00159332
0.00159467
0.0015956
0.00159708
0.00159804
0.00159972
0.00160078
0.00160272
0.00160412
0.00160634
0.00160862
0.00159242
1.48696e-07
2.43341e-06
8.31694e-05
0.000320813
0.00052157
0.000681189
0.000811118
0.000917446
0.00100748
0.00108357
0.00114871
0.00120563
0.00125556
0.00129943
0.00133839
0.00137339
0.00140502
0.00143362
0.0014595
0.00148303
0.00150458
0.00152441
0.00154275
0.00155972
0.00157544
0.00159001
0.00160353
0.0016161
0.00162781
0.00163877
0.00164904
0.00165869
0.00166777
0.00167634
0.00168441
0.00169203
0.00169923
0.00170603
0.00171245
0.00171853
0.00172427
0.00172972
0.00173488
0.00173977
0.00174442
0.00174884
0.00175305
0.00175706
0.00176088
0.00176455
0.00176804
0.0017714
0.00177461
0.0017777
0.00178067
0.00178355
0.00178632
0.00178903
0.00179163
0.00179421
0.00179669
0.00179917
0.00180158
0.00180361
0.00180516
0.00180673
0.0018082
0.00180971
0.00181111
0.00181259
0.00181394
0.00181541
0.00181671
0.0018182
0.00181947
0.001821
0.00182226
0.00182385
0.00182512
0.00182682
0.00182813
0.00182999
0.00183142
0.00183349
0.00183523
0.00183753
0.00183994
0.00182508
2.4815e-08
7.0102e-08
1.84345e-06
9.81049e-05
0.00035245
0.000551834
0.000717055
0.000853634
0.000969778
0.00106822
0.00115313
0.00122773
0.00129327
0.00135104
0.00140256
0.001449
0.00149101
0.00152905
0.00156355
0.00159501
0.00162389
0.00165053
0.00167518
0.00169802
0.0017192
0.00173886
0.00175712
0.00177414
0.00179002
0.0018049
0.00181886
0.001832
0.00184437
0.00185605
0.00186706
0.00187747
0.00188729
0.00189658
0.00190537
0.00191368
0.00192155
0.00192902
0.00193609
0.00194281
0.00194919
0.00195527
0.00196105
0.00196657
0.00197182
0.00197686
0.00198166
0.00198627
0.00199067
0.00199492
0.00199899
0.00200292
0.0020067
0.00201038
0.00201392
0.00201739
0.00202074
0.00202405
0.00202726
0.00202995
0.002032
0.00203404
0.00203596
0.0020379
0.00203973
0.0020416
0.00204334
0.00204516
0.00204684
0.00204864
0.00205027
0.00205207
0.00205368
0.0020555
0.00205711
0.002059
0.00206065
0.00206264
0.0020644
0.00206653
0.00206854
0.00207084
0.00207332
0.00206047
1.61906e-08
1.88495e-08
3.79461e-08
9.3452e-07
7.29039e-05
0.000318889
0.000533221
0.000706172
0.000854991
0.000981183
0.00109078
0.00118721
0.00127202
0.00134704
0.00141434
0.00147516
0.00153024
0.00158014
0.00162549
0.00166696
0.00170511
0.00174036
0.00177302
0.00180329
0.00183137
0.00185746
0.00188173
0.00190438
0.00192555
0.00194541
0.00196407
0.00198165
0.00199821
0.00201384
0.00202859
0.00204254
0.00205571
0.00206817
0.00207996
0.00209112
0.0021017
0.00211173
0.00212124
0.00213029
0.00213888
0.00214706
0.00215485
0.00216228
0.00216937
0.00217615
0.00218261
0.00218882
0.00219474
0.00220044
0.0022059
0.00221116
0.00221621
0.0022211
0.0022258
0.00223038
0.00223479
0.00223912
0.0022433
0.00224675
0.00224939
0.00225197
0.00225443
0.00225685
0.00225916
0.00226145
0.00226363
0.00226582
0.00226789
0.00227
0.002272
0.00227406
0.002276
0.00227803
0.00227995
0.00228199
0.00228392
0.00228599
0.002288
0.00229013
0.00229231
0.00229448
0.002297
0.00228664
1.52926e-08
1.54382e-08
1.62913e-08
2.38898e-08
2.31426e-07
2.12908e-05
0.000196254
0.000437935
0.000631723
0.000790887
0.000931361
0.00105555
0.0011644
0.00126105
0.00134801
0.00142673
0.001498
0.00156259
0.00162144
0.00167547
0.00172531
0.00177144
0.00181417
0.00185379
0.00189055
0.00192472
0.00195655
0.00198629
0.00201415
0.00204031
0.00206491
0.0020881
0.00210997
0.00213061
0.00215009
0.0021685
0.0021859
0.00220237
0.00221795
0.00223271
0.00224669
0.00225997
0.00227257
0.00228455
0.00229594
0.00230679
0.00231712
0.00232698
0.00233638
0.00234536
0.00235393
0.00236215
0.00236999
0.00237751
0.00238471
0.00239164
0.00239827
0.00240467
0.00241081
0.00241675
0.00242245
0.00242799
0.00243333
0.00243769
0.00244101
0.00244422
0.00244728
0.00245025
0.00245308
0.00245583
0.00245847
0.00246105
0.00246352
0.00246596
0.00246829
0.00247061
0.00247284
0.00247506
0.00247723
0.00247938
0.00248151
0.00248361
0.00248577
0.00248782
0.00249009
0.00249206
0.00249456
0.00248638
1.52025e-08
1.50998e-08
1.50824e-08
1.5294e-08
1.75485e-08
4.6023e-08
1.04389e-06
4.33756e-05
0.000224236
0.000440941
0.000633905
0.000794644
0.000932205
0.0010555
0.00116779
0.00126943
0.00136105
0.00144399
0.0015198
0.00158952
0.00165398
0.00171366
0.00176894
0.00182017
0.0018677
0.00191192
0.00195318
0.00199182
0.00202809
0.0020622
0.0020943
0.00212458
0.00215312
0.00218006
0.00220549
0.00222952
0.00225223
0.00227372
0.00229406
0.00231334
0.00233161
0.00234897
0.00236545
0.00238113
0.00239604
0.00241025
0.00242379
0.0024367
0.00244901
0.00246078
0.002472
0.00248273
0.00249298
0.00250278
0.00251215
0.00252112
0.0025297
0.00253793
0.0025458
0.00255335
0.00256058
0.00256754
0.00257421
0.00257958
0.00258366
0.00258755
0.00259124
0.00259477
0.00259812
0.00260133
0.00260438
0.00260731
0.0026101
0.00261279
0.00261535
0.00261782
0.00262019
0.00262247
0.00262467
0.00262679
0.00262887
0.00263083
0.00263284
0.00263462
0.00263666
0.00263815
0.00264045
0.00263679
1.52094e-08
1.5127e-08
1.5085e-08
1.49994e-08
1.50263e-08
1.54663e-08
1.88127e-08
4.92149e-08
6.99506e-07
1.93938e-05
0.000138127
0.000318058
0.000501617
0.000673975
0.000825827
0.000957423
0.00107347
0.00117858
0.00127553
0.00136556
0.001449
0.00152609
0.00159723
0.00166298
0.00172396
0.00178075
0.00183388
0.00188368
0.00193047
0.00197453
0.00201602
0.00205514
0.00209202
0.00212682
0.00215964
0.00219065
0.00221995
0.00224769
0.00227394
0.00229884
0.00232246
0.00234491
0.00236624
0.00238655
0.00240589
0.00242433
0.0024419
0.00245866
0.00247464
0.0024899
0.00250444
0.00251834
0.0025316
0.00254427
0.00255635
0.00256787
0.00257884
0.00258932
0.00259928
0.00260878
0.00261782
0.00262643
0.0026346
0.00264109
0.00264598
0.00265059
0.00265491
0.002659
0.00266282
0.00266643
0.00266982
0.00267301
0.00267599
0.0026788
0.00268142
0.0026839
0.0026862
0.00268839
0.00269039
0.00269233
0.00269406
0.00269578
0.00269724
0.00269881
0.00269999
0.00270149
0.00270232
0.00270393
1.52209e-08
1.51691e-08
1.51334e-08
1.50774e-08
1.50412e-08
1.49977e-08
1.50343e-08
1.53679e-08
1.71944e-08
2.72958e-08
1.0705e-07
1.30537e-06
1.79697e-05
0.000107815
0.000243034
0.000388153
0.000537745
0.000683857
0.000820063
0.000943545
0.00105427
0.00115382
0.00124419
0.00132731
0.00140457
0.00147698
0.0015451
0.00160935
0.00166988
0.00172689
0.00178053
0.00183098
0.00187843
0.0019231
0.00196519
0.0020049
0.00204242
0.00207793
0.00211158
0.00214351
0.00217384
0.00220269
0.00223012
0.00225625
0.00228112
0.00230483
0.00232743
0.00234899
0.00236954
0.00238914
0.00240782
0.00242564
0.00244262
0.00245881
0.00247422
0.0024889
0.00250286
0.00251613
0.00252872
0.00254066
0.00255196
0.00256265
0.00257272
0.00258065
0.00258657
0.00259211
0.00259727
0.00260209
0.00260656
0.00261072
0.00261457
0.00261815
0.00262145
0.00262449
0.00262729
0.00262986
0.0026322
0.00263435
0.00263628
0.00263804
0.00263961
0.00264103
0.00264227
0.00264339
0.00264434
0.00264518
0.00264591
0.00265137
1.52287e-08
1.51925e-08
1.5172e-08
1.51326e-08
1.51127e-08
1.50742e-08
1.50552e-08
1.50238e-08
1.50312e-08
1.51532e-08
1.54505e-08
1.78584e-08
2.29611e-08
5.95947e-08
2.39658e-07
1.88158e-06
1.45989e-05
6.69815e-05
0.000156199
0.000256651
0.000363112
0.000474397
0.000587654
0.000699694
0.000807791
0.000910168
0.00100582
0.00109449
0.00117636
0.00125193
0.00132179
0.00138661
0.001447
0.00150354
0.00155667
0.00160682
0.00165427
0.00169931
0.00174212
0.00178288
0.00182172
0.00185874
0.00189404
0.00192772
0.00195983
0.00199045
0.00201962
0.00204744
0.00207392
0.00209915
0.00212316
0.00214601
0.00216773
0.00218838
0.00220797
0.00222657
0.00224419
0.00226088
0.00227665
0.00229153
0.00230554
0.00231868
0.00233098
0.00234054
0.00234764
0.00235421
0.00236027
0.00236586
0.002371
0.0023757
0.00237999
0.00238389
0.00238743
0.00239061
0.00239346
0.00239599
0.00239823
0.00240016
0.00240186
0.00240326
0.00240447
0.00240541
0.0024062
0.00240671
0.00240715
0.00240727
0.00240771
0.00241778
1.52338e-08
1.5212e-08
1.51935e-08
1.51721e-08
1.51543e-08
1.51345e-08
1.51175e-08
1.50989e-08
1.50815e-08
1.50659e-08
1.50548e-08
1.50687e-08
1.51081e-08
1.5353e-08
1.5774e-08
1.73605e-08
2.04869e-08
3.10675e-08
6.08991e-08
1.79521e-07
7.20027e-07
3.25045e-06
1.32202e-05
4.08766e-05
8.96368e-05
0.000150476
0.000215691
0.000283493
0.000353686
0.000426018
0.000499765
0.000574126
0.000648192
0.000721222
0.00079253
0.000861642
0.00092816
0.000991871
0.00105261
0.00111036
0.0011651
0.00121692
0.0012659
0.00131219
0.00135589
0.00139717
0.00143614
0.00147297
0.00150775
0.00154063
0.0015717
0.00160108
0.00162884
0.0016551
0.00167988
0.0017033
0.00172536
0.00174615
0.00176569
0.00178401
0.00180114
0.00181709
0.00183187
0.00184324
0.0018516
0.00185927
0.00186627
0.00187264
0.0018784
0.0018836
0.00188824
0.00189238
0.00189602
0.00189921
0.00190193
0.00190427
0.00190619
0.00190777
0.00190896
0.00190988
0.00191044
0.00191078
0.00191075
0.00191058
0.00191022
0.00190925
0.00190929
0.001925
1.52375e-08
1.52231e-08
1.5214e-08
1.51984e-08
1.519e-08
1.51755e-08
1.51677e-08
1.51542e-08
1.51468e-08
1.51342e-08
1.51265e-08
1.51147e-08
1.51084e-08
1.5101e-08
1.5102e-08
1.5111e-08
1.51312e-08
1.51959e-08
1.53116e-08
1.55729e-08
1.60846e-08
1.70878e-08
1.91961e-08
2.29801e-08
3.10978e-08
4.75632e-08
8.54504e-08
1.74563e-07
3.99849e-07
9.66768e-07
2.38032e-06
5.6562e-06
1.2564e-05
2.51665e-05
4.48572e-05
7.10403e-05
0.000101823
0.000135008
0.000169313
0.000204034
0.000239014
0.000274154
0.000309451
0.000344845
0.000380249
0.000415593
0.000450718
0.000485569
0.000519954
0.000553851
0.000587055
0.000619583
0.000651226
0.000682038
0.000711812
0.000740632
0.000768274
0.000794634
0.000819692
0.000843356
0.000865611
0.00088636
0.000905607
0.000920324
0.000931115
0.000940931
0.00094983
0.000957831
0.000964998
0.000971341
0.000976933
0.000981777
0.00098595
0.000989448
0.000992357
0.000994661
0.000996455
0.000997714
0.000998541
0.000998898
0.000998796
0.000998466
0.000997694
0.000996902
0.000995331
0.000994208
0.000991959
0.00101047
1.52401e-08
1.52364e-08
1.52303e-08
1.52263e-08
1.52206e-08
1.5217e-08
1.52116e-08
1.52082e-08
1.52031e-08
1.52e-08
1.51952e-08
1.51923e-08
1.51877e-08
1.51844e-08
1.51801e-08
1.51772e-08
1.51736e-08
1.51716e-08