/*--------------------------------*- C++ -*----------------------------------*\
| =========                 |                                                 |
| \\      /  F ield         | OpenFOAM: The Open Source CFD Toolbox           |
|  \\    /   O peration     | Version:  v2006                                 |
|   \\  /    A nd           | Website:  www.openfoam.com                      |
|    \\/     M anipulation  |                                                 |
\*---------------------------------------------------------------------------*/
FoamFile
{
    version     2.0;
    format      ascii;
    class       volScalarField;
    location    "10000";
    object      nut;
}
// * * * * * * * * * * * * * * * * * * * * * * * * * * * * * * * * * * * * * //

dimensions      [0 2 -1 0 0 0 0];


internalField   nonuniform List<scalar> 
20540
(
1.22884e-06
0.000167252
1.25248e-06
0.000167514
1.31203e-06
0.000168107
1.42441e-06
0.000169074
1.61208e-06
0.000170409
1.902e-06
0.000172006
2.31846e-06
0.000173578
2.86305e-06
0.000174535
3.47722e-06
0.000174107
3.99648e-06
0.000171176
4.14735e-06
0.000164011
3.64331e-06
0.000150199
2.45027e-06
0.000126437
1.07808e-06
8.8864e-05
2.6221e-07
3.81926e-05
4.63629e-08
4.14461e-06
2.10584e-08
2.06727e-07
1.6414e-08
2.71545e-08
1.57224e-08
1.70935e-08
1.5281e-08
1.54266e-08
1.52625e-08
1.53038e-08
1.5243e-08
1.52496e-08
1.5244e-08
1.5245e-08
1.52454e-08
1.5245e-08
1.52452e-08
1.52449e-08
1.52449e-08
1.52446e-08
1.52445e-08
1.52443e-08
1.52441e-08
1.52439e-08
1.52436e-08
1.52433e-08
1.5243e-08
1.52425e-08
1.52424e-08
1.52416e-08
1.52417e-08
1.5241e-08
1.52417e-08
1.5241e-08
1.52423e-08
1.52416e-08
1.5243e-08
1.52425e-08
1.52436e-08
1.52433e-08
1.52441e-08
1.52438e-08
1.52445e-08
1.52442e-08
1.52448e-08
1.52446e-08
1.52451e-08
1.52448e-08
1.52453e-08
1.5245e-08
1.52439e-08
1.52449e-08
1.52413e-08
1.52475e-08
1.52414e-08
1.52758e-08
1.52472e-08
1.54109e-08
1.53171e-08
1.6142e-08
1.57615e-08
2.02122e-08
1.82249e-08
6.88317e-08
2.51081e-08
1.0609e-06
1.02511e-07
1.65466e-05
5.27692e-07
6.49029e-05
1.59445e-06
0.000108345
2.93019e-06
0.000138229
3.85733e-06
0.000156868
4.1087e-06
0.000167542
3.82746e-06
0.000172884
3.28374e-06
0.000174836
2.70205e-06
0.000174787
2.20401e-06
0.000173633
1.82754e-06
0.000172053
1.56556e-06
0.000170517
1.39516e-06
0.000169254
1.29239e-06
0.000168344
1.2375e-06
0.000167786
1.21554e-06
0.000167538
1.45817e-08
9.55447e-09
8.19888e-09
7.44867e-09
6.97733e-09
6.65501e-09
6.42113e-09
6.24022e-09
6.09775e-09
5.98309e-09
5.88794e-09
5.80795e-09
5.74013e-09
5.68177e-09
5.63083e-09
5.5861e-09
5.54671e-09
5.51185e-09
5.48076e-09
5.45281e-09
5.42756e-09
5.40468e-09
5.38392e-09
5.36505e-09
5.34787e-09
5.33215e-09
5.31774e-09
5.30446e-09
5.2922e-09
5.28086e-09
5.27035e-09
5.26059e-09
5.25154e-09
5.24313e-09
5.23533e-09
5.22808e-09
5.22135e-09
5.2151e-09
5.20932e-09
5.20398e-09
5.19907e-09
5.19459e-09
5.19055e-09
5.18695e-09
5.18384e-09
5.18137e-09
5.17909e-09
5.17867e-09
5.17971e-09
5.1796e-09
5.18109e-09
5.182e-09
5.18355e-09
5.18793e-09
5.19274e-09
5.20003e-09
5.20923e-09
5.22032e-09
5.23374e-09
5.24964e-09
5.26855e-09
5.29051e-09
5.31556e-09
5.3398e-09
5.3626e-09
5.38565e-09
5.41026e-09
5.43648e-09
5.4643e-09
5.49374e-09
5.52488e-09
5.55763e-09
5.59235e-09
5.62847e-09
5.66722e-09
5.70676e-09
5.75038e-09
5.79328e-09
5.84345e-09
5.88947e-09
5.94927e-09
5.9996e-09
6.07214e-09
6.13669e-09
6.21917e-09
6.37514e-09
6.42819e-09
7.48328e-09
1.55347e-06
1.14142e-06
9.73242e-07
8.78217e-07
8.1785e-07
7.76357e-07
7.46228e-07
7.22914e-07
7.04553e-07
6.8978e-07
6.77527e-07
6.67237e-07
6.5852e-07
6.51024e-07
6.44488e-07
6.38753e-07
6.33707e-07
6.29245e-07
6.25268e-07
6.21696e-07
6.18471e-07
6.15552e-07
6.12905e-07
6.10501e-07
6.08313e-07
6.06315e-07
6.04482e-07
6.02796e-07
6.01241e-07
5.99803e-07
5.98471e-07
5.97236e-07
5.96092e-07
5.9503e-07
5.94045e-07
5.93132e-07
5.92284e-07
5.91499e-07
5.90772e-07
5.90102e-07
5.89486e-07
5.88924e-07
5.88417e-07
5.87967e-07
5.87575e-07
5.87318e-07
5.8726e-07
5.87522e-07
5.87754e-07
5.88101e-07
5.87863e-07
5.87448e-07
5.88065e-07
5.88275e-07
5.88602e-07
5.89466e-07
5.90459e-07
5.91765e-07
5.93347e-07
5.95219e-07
5.97443e-07
6.00021e-07
6.02867e-07
6.05737e-07
6.08713e-07
6.1143e-07
6.14312e-07
6.17372e-07
6.2061e-07
6.24027e-07
6.27628e-07
6.31402e-07
6.35385e-07
6.39513e-07
6.43915e-07
6.48388e-07
6.53278e-07
6.58069e-07
6.63583e-07
6.6864e-07
6.75012e-07
6.8042e-07
6.87692e-07
6.94274e-07
7.02074e-07
7.12819e-07
7.27045e-07
9.52827e-07
2.02223e-05
1.65884e-05
1.42828e-05
1.29091e-05
1.20141e-05
1.13889e-05
1.09301e-05
1.05718e-05
1.02875e-05
1.00571e-05
9.86499e-06
9.70281e-06
9.56479e-06
9.4456e-06
9.34126e-06
9.24941e-06
9.16835e-06
9.09646e-06
9.03223e-06
8.97439e-06
8.92206e-06
8.8746e-06
8.83149e-06
8.79229e-06
8.75654e-06
8.72386e-06
8.69385e-06
8.66621e-06
8.64069e-06
8.61708e-06
8.59519e-06
8.5749e-06
8.55608e-06
8.53861e-06
8.5224e-06
8.50737e-06
8.49341e-06
8.48048e-06
8.46852e-06
8.45748e-06
8.44733e-06
8.43807e-06
8.42971e-06
8.42225e-06
8.41576e-06
8.41046e-06
8.40743e-06
8.4053e-06
8.40428e-06
8.41017e-06
8.40946e-06
8.40873e-06
8.41558e-06
8.41991e-06
8.42903e-06
8.44208e-06
8.45823e-06
8.47848e-06
8.50299e-06
8.53198e-06
8.56637e-06
8.60614e-06
8.65348e-06
8.70151e-06
8.74455e-06
8.78672e-06
8.83114e-06
8.87819e-06
8.92777e-06
8.97996e-06
9.03474e-06
9.09197e-06
9.15205e-06
9.21412e-06
9.27983e-06
9.34639e-06
9.41838e-06
9.48887e-06
9.56838e-06
9.6417e-06
9.73083e-06
9.80756e-06
9.90366e-06
9.99018e-06
1.01081e-05
1.01634e-05
1.05266e-05
9.43291e-06
5.71188e-05
5.84864e-05
5.62645e-05
5.40878e-05
5.23823e-05
5.10408e-05
4.99812e-05
4.90998e-05
4.83697e-05
4.77562e-05
4.72271e-05
4.67702e-05
4.63738e-05
4.60248e-05
4.57141e-05
4.54371e-05
4.51901e-05
4.4969e-05
4.47694e-05
4.45881e-05
4.44226e-05
4.42717e-05
4.41338e-05
4.40079e-05
4.38925e-05
4.37865e-05
4.36886e-05
4.35981e-05
4.35141e-05
4.34361e-05
4.33635e-05
4.3296e-05
4.32331e-05
4.31747e-05
4.31203e-05
4.30696e-05
4.30224e-05
4.29785e-05
4.29377e-05
4.28998e-05
4.28647e-05
4.28324e-05
4.28029e-05
4.27762e-05
4.27524e-05
4.27319e-05
4.27146e-05
4.27014e-05
4.26923e-05
4.26921e-05
4.26901e-05
4.26921e-05
4.27042e-05
4.27204e-05
4.27452e-05
4.2779e-05
4.28225e-05
4.28764e-05
4.2942e-05
4.302e-05
4.31127e-05
4.32202e-05
4.33452e-05
4.34642e-05
4.35692e-05
4.36796e-05
4.37951e-05
4.3917e-05
4.40439e-05
4.41775e-05
4.43153e-05
4.44596e-05
4.46076e-05
4.47615e-05
4.49192e-05
4.5081e-05
4.52477e-05
4.54153e-05
4.5592e-05
4.57573e-05
4.59543e-05
4.61012e-05
4.63361e-05
4.63882e-05
4.68923e-05
4.59087e-05
4.94229e-05
3.57978e-05
9.73563e-05
0.000109297
0.000110667
0.00010962
0.000108335
0.000107121
0.000106074
0.000105135
0.000104325
0.000103619
0.000102991
0.000102437
0.000101949
0.000101513
0.000101118
0.000100763
0.000100445
0.000100158
9.98965e-05
9.96573e-05
9.94379e-05
9.92368e-05
9.90527e-05
9.88841e-05
9.87293e-05
9.85865e-05
9.84544e-05
9.83318e-05
9.82176e-05
9.81114e-05
9.80123e-05
9.79201e-05
9.78341e-05
9.77541e-05
9.76795e-05
9.76101e-05
9.75453e-05
9.7485e-05
9.74287e-05
9.73764e-05
9.73279e-05
9.72831e-05
9.72419e-05
9.72045e-05
9.71708e-05
9.71415e-05
9.71153e-05
9.70951e-05
9.708e-05
9.70704e-05
9.7067e-05
9.7069e-05
9.70805e-05
9.71024e-05
9.71316e-05
9.71719e-05
9.72244e-05
9.72897e-05
9.73696e-05
9.74651e-05
9.75784e-05
9.77103e-05
9.78626e-05
9.80045e-05
9.81287e-05
9.8263e-05
9.84025e-05
9.85503e-05
9.87025e-05
9.88636e-05
9.90272e-05
9.92007e-05
9.9374e-05
9.95579e-05
9.97398e-05
9.99322e-05
0.00010012
0.000100318
0.000100514
0.000100699
0.00010093
0.000101063
0.000101386
0.000101253
0.000102208
0.000100013
0.000106171
8.33948e-05
0.000134999
0.000160418
0.000168092
0.000169805
0.000170011
0.000169659
0.000169159
0.000168566
0.000167992
0.000167446
0.000166922
0.000166441
0.000166006
0.000165603
0.000165229
0.000164888
0.000164577
0.000164295
0.000164035
0.000163794
0.000163571
0.000163365
0.000163176
0.000163002
0.000162842
0.000162694
0.000162557
0.000162429
0.000162309
0.000162197
0.000162092
0.000161995
0.000161904
0.000161819
0.00016174
0.000161666
0.000161598
0.000161534
0.000161474
0.000161419
0.000161367
0.00016132
0.000161276
0.000161236
0.0001612
0.000161168
0.00016114
0.000161118
0.000161101
0.000161089
0.000161085
0.000161086
0.000161097
0.00016112
0.00016115
0.000161191
0.000161245
0.000161312
0.000161394
0.000161492
0.000161608
0.000161743
0.000161899
0.000162045
0.00016217
0.000162307
0.000162449
0.000162599
0.000162752
0.000162916
0.000163079
0.000163255
0.000163425
0.000163611
0.000163787
0.000163981
0.000164159
0.000164359
0.000164544
0.00016472
0.000164958
0.000165052
0.00016543
0.000165128
0.000166413
0.000163623
0.000170383
0.000148282
0.000167878
0.000209001
0.000225407
0.000231502
0.000234293
0.000235567
0.000236175
0.000236344
0.000236328
0.000236195
0.000235976
0.000235732
0.000235484
0.000235229
0.000234971
0.000234723
0.000234492
0.000234276
0.000234071
0.000233876
0.000233691
0.000233518
0.000233358
0.00023321
0.000233073
0.000232945
0.000232825
0.000232711
0.000232605
0.000232505
0.000232411
0.000232323
0.000232241
0.000232164
0.000232093
0.000232027
0.000231965
0.000231908
0.000231854
0.000231804
0.000231757
0.000231714
0.000231674
0.000231638
0.000231606
0.000231578
0.000231553
0.000231534
0.00023152
0.00023151
0.000231508
0.000231512
0.000231524
0.000231549
0.00023158
0.000231622
0.000231677
0.000231745
0.000231827
0.000231925
0.00023204
0.000232174
0.000232328
0.000232473
0.000232595
0.00023273
0.000232867
0.000233015
0.000233162
0.000233323
0.000233477
0.00023365
0.000233809
0.000233993
0.000234154
0.000234347
0.000234507
0.000234704
0.000234871
0.000235036
0.000235273
0.000235334
0.000235747
0.000235354
0.000236764
0.00023406
0.000239928
0.00022167
0.000194868
0.000254133
0.000281977
0.00029443
0.000301215
0.000305142
0.000307635
0.000309159
0.000310168
0.000310818
0.000311199
0.000311433
0.000311575
0.000311634
0.000311632
0.000311599
0.000311551
0.000311493
0.000311422
0.000311341
0.000311255
0.000311169
0.000311086
0.000311008
0.000310933
0.000310861
0.000310791
0.000310723
0.000310657
0.000310593
0.000310533
0.000310475
0.000310422
0.000310372
0.000310325
0.000310282
0.000310242
0.000310204
0.000310169
0.000310137
0.000310107
0.000310079
0.000310053
0.000310031
0.00031001
0.000309994
0.00030998
0.00030997
0.000309966
0.000309965
0.000309972
0.000309983
0.000310002
0.000310033
0.00031007
0.000310118
0.000310177
0.00031025
0.000310335
0.000310436
0.000310552
0.000310688
0.000310842
0.000310987
0.000311107
0.00031124
0.000311374
0.00031152
0.000311662
0.000311821
0.000311967
0.000312139
0.000312286
0.000312469
0.000312616
0.000312809
0.000312951
0.00031315
0.000313299
0.000313461
0.000313692
0.00031374
0.000314167
0.000313785
0.00031511
0.000313023
0.000317267
0.000301738
0.000214868
0.000294508
0.000337093
0.000358339
0.000370921
0.000378876
0.000384339
0.000388073
0.000390803
0.000392804
0.000394248
0.000395348
0.000396206
0.000396857
0.000397346
0.000397731
0.000398046
0.000398301
0.000398502
0.000398657
0.000398777
0.000398874
0.000398956
0.000399026
0.000399086
0.000399136
0.000399175
0.000399206
0.000399229
0.000399248
0.000399262
0.000399274
0.000399285
0.000399295
0.000399305
0.000399314
0.000399323
0.000399331
0.000399339
0.000399346
0.000399354
0.000399361
0.000399368
0.000399376
0.000399384
0.000399395
0.000399406
0.000399421
0.000399438
0.000399459
0.000399485
0.000399515
0.000399551
0.000399598
0.00039965
0.000399713
0.000399784
0.000399868
0.000399963
0.000400074
0.000400198
0.000400341
0.000400499
0.00040065
0.00040077
0.000400905
0.000401037
0.000401185
0.000401323
0.000401484
0.000401622
0.000401798
0.000401934
0.000402122
0.000402255
0.000402455
0.000402582
0.000402789
0.000402921
0.000403097
0.000403309
0.000403379
0.000403792
0.000403536
0.000404598
0.000403446
0.000405975
0.000391214
0.000226447
0.000327958
0.00038919
0.000422155
0.000442747
0.000456455
0.000466289
0.000473374
0.000478779
0.000482932
0.000486107
0.000488644
0.000490713
0.000492378
0.000493724
0.000494847
0.000495807
0.000496629
0.000497325
0.000497913
0.000498417
0.000498857
0.000499249
0.000499601
0.000499917
0.000500198
0.000500449
0.000500672
0.00050087
0.000501049
0.000501211
0.00050136
0.000501498
0.000501627
0.000501747
0.00050186
0.000501966
0.000502066
0.000502158
0.000502246
0.000502327
0.000502405
0.000502478
0.000502547
0.000502614
0.000502679
0.000502741
0.000502804
0.000502868
0.000502931
0.000502998
0.000503066
0.000503137
0.000503218
0.000503302
0.000503394
0.000503493
0.000503604
0.000503722
0.000503856
0.000503998
0.000504161
0.000504334
0.000504498
0.000504626
0.00050477
0.000504905
0.000505063
0.000505201
0.000505372
0.000505507
0.000505695
0.000505823
0.000506027
0.00050615
0.000506366
0.000506484
0.000506711
0.000506832
0.000507046
0.000507227
0.000507367
0.000507736
0.000507704
0.000508428
0.000508248
0.000509511
0.000493957
0.00022783
0.000351375
0.000435614
0.00048377
0.000515034
0.000536589
0.000552518
0.000564383
0.000573683
0.000581031
0.00058683
0.00059158
0.000595539
0.000598813
0.000601537
0.000603861
0.000605881
0.00060764
0.000609164
0.000610485
0.000611641
0.00061267
0.000613596
0.000614435
0.000615195
0.000615882
0.000616502
0.000617064
0.000617572
0.000618036
0.000618462
0.000618856
0.000619222
0.000619565
0.000619885
0.000620185
0.000620465
0.000620729
0.000620976
0.000621208
0.000621425
0.00062163
0.000621823
0.000622005
0.000622178
0.000622343
0.0006225
0.000622652
0.000622799
0.000622942
0.000623084
0.000623224
0.000623363
0.000623507
0.000623651
0.000623801
0.000623953
0.000624116
0.000624281
0.000624462
0.000624645
0.00062485
0.000625058
0.000625255
0.000625403
0.000625571
0.000625722
0.000625903
0.000626053
0.000626249
0.000626392
0.000626608
0.00062674
0.000626976
0.000627103
0.000627353
0.000627478
0.000627743
0.000627871
0.000628149
0.000628305
0.000628582
0.000628855
0.000629119
0.000629571
0.000630165
0.000630909
0.000613787
0.000217374
0.000360736
0.00047247
0.000539868
0.000585002
0.000616928
0.000641032
0.000659414
0.000674105
0.000685943
0.00069549
0.000703443
0.000710171
0.000715834
0.00072063
0.000724777
0.000728419
0.000731625
0.000734438
0.000736909
0.000739099
0.000741064
0.000742844
0.000744466
0.000745943
0.000747289
0.000748512
0.000749627
0.000750645
0.000751581
0.000752443
0.000753244
0.00075399
0.000754688
0.000755341
0.000755953
0.000756528
0.000757067
0.000757573
0.000758048
0.000758494
0.000758915
0.00075931
0.000759684
0.000760037
0.000760373
0.000760691
0.000760995
0.000761287
0.000761568
0.000761839
0.000762104
0.000762359
0.000762615
0.000762865
0.000763117
0.000763365
0.000763622
0.000763874
0.000764141
0.000764404
0.000764689
0.00076497
0.000765231
0.000765425
0.000765641
0.000765831
0.000766061
0.000766246
0.000766493
0.000766666
0.000766937
0.000767095
0.000767393
0.000767546
0.00076786
0.000768016
0.000768355
0.000768515
0.000768893
0.000769069
0.000769513
0.000769737
0.000770344
0.000770659
0.000771769
0.000772452
0.000754294
0.000192241
0.000351382
0.000494442
0.000585674
0.000648501
0.000693847
0.000728643
0.00075564
0.000777532
0.00079543
0.000810096
0.000822472
0.000833059
0.000842084
0.000849826
0.000856589
0.000862577
0.00086789
0.000872594
0.000876766
0.000880493
0.00088386
0.000886926
0.00088973
0.000892296
0.000894644
0.00089679
0.000898757
0.000900562
0.000902227
0.000903769
0.000905204
0.000906543
0.000907797
0.000908972
0.000910077
0.000911113
0.000912087
0.000913002
0.000913863
0.000914672
0.000915435
0.000916153
0.000916833
0.000917474
0.000918083
0.00091866
0.00091921
0.000919734
0.000920237
0.000920718
0.000921185
0.000921632
0.000922071
0.000922495
0.000922917
0.000923325
0.000923738
0.000924138
0.000924553
0.000924954
0.000925379
0.000925791
0.000926167
0.000926443
0.000926748
0.000927015
0.000927332
0.000927589
0.000927925
0.000928166
0.000928532
0.000928752
0.000929153
0.000929366
0.000929794
0.000930012
0.000930477
0.000930706
0.000931233
0.00093148
0.000932122
0.000932409
0.000933292
0.000933692
0.000935089
0.000936093
0.000917541
0.000150596
0.00031826
0.000494639
0.000614628
0.000699651
0.000762097
0.000810639
0.000848801
0.000880088
0.000905948
0.000927394
0.000945671
0.000961443
0.000975019
0.000986779
0.000997134
0.00100636
0.0010146
0.00102195
0.00102851
0.00103442
0.00103978
0.00104468
0.00104918
0.00105331
0.00105711
0.0010606
0.0010638
0.00106676
0.0010695
0.00107204
0.00107441
0.00107662
0.0010787
0.00108066
0.00108249
0.00108422
0.00108584
0.00108737
0.00108881
0.00109016
0.00109144
0.00109265
0.00109379
0.00109486
0.00109589
0.00109686
0.00109778
0.00109866
0.0010995
0.00110031
0.00110108
0.00110182
0.00110255
0.00110324
0.00110393
0.00110458
0.00110524
0.00110588
0.00110652
0.00110715
0.00110779
0.00110842
0.00110898
0.00110939
0.00110984
0.00111024
0.0011107
0.00111108
0.00111155
0.00111191
0.00111242
0.00111276
0.00111332
0.00111364
0.00111424
0.00111456
0.00111522
0.00111556
0.0011163
0.00111667
0.00111756
0.00111799
0.00111915
0.00111976
0.0011214
0.00112284
0.00110394
9.50169e-05
0.000256874
0.000464983
0.000618025
0.000730387
0.000814326
0.00088032
0.000932753
0.000976114
0.00101225
0.0010425
0.00106848
0.00109104
0.00111061
0.00112769
0.00114283
0.00115639
0.00116856
0.00117947
0.00118927
0.00119813
0.00120622
0.00121364
0.00122047
0.00122676
0.00123256
0.00123791
0.00124285
0.00124741
0.00125165
0.0012556
0.00125929
0.00126274
0.00126599
0.00126904
0.00127192
0.00127462
0.00127717
0.00127957
0.00128184
0.00128398
0.001286
0.0012879
0.00128971
0.00129141
0.00129304
0.00129457
0.00129604
0.00129743
0.00129877
0.00130004
0.00130127
0.00130244
0.00130358
0.00130467
0.00130574
0.00130676
0.00130778
0.00130876
0.00130975
0.0013107
0.00131168
0.00131263
0.00131346
0.00131408
0.00131474
0.00131533
0.001316
0.00131656
0.00131725
0.00131779
0.00131851
0.00131902
0.00131979
0.00132028
0.00132112
0.0013216
0.00132252
0.00132302
0.00132404
0.00132458
0.00132577
0.00132641
0.00132789
0.00132875
0.00133068
0.00133252
0.00131333
3.49547e-05
0.000164711
0.000394162
0.000585089
0.000729939
0.000840491
0.000928395
0.000998874
0.00105759
0.00110683
0.00114835
0.00118424
0.00121556
0.00124288
0.00126687
0.00128824
0.00130745
0.00132477
0.00134036
0.00135443
0.00136721
0.00137891
0.00138967
0.00139961
0.0014088
0.00141728
0.00142513
0.00143239
0.00143912
0.00144539
0.00145124
0.00145672
0.00146187
0.00146671
0.00147126
0.00147556
0.0014796
0.00148342
0.00148702
0.00149043
0.00149364
0.00149668
0.00149955
0.00150227
0.00150485
0.0015073
0.00150963
0.00151185
0.00151396
0.00151598
0.0015179
0.00151976
0.00152153
0.00152325
0.00152489
0.0015265
0.00152804
0.00152956
0.00153102
0.00153249
0.0015339
0.00153534
0.00153673
0.00153794
0.00153885
0.00153979
0.00154066
0.0015416
0.00154243
0.00154338
0.00154418
0.00154516
0.00154593
0.00154696
0.0015477
0.00154881
0.00154953
0.00155075
0.00155146
0.00155281
0.00155358
0.00155511
0.00155599
0.00155782
0.00155895
0.0015612
0.00156334
0.00154425
2.96297e-06
4.67149e-05
0.00026863
0.000501203
0.00068481
0.000827266
0.000942246
0.00103531
0.00111337
0.00117916
0.00123499
0.0012835
0.00132599
0.00136321
0.00139606
0.00142544
0.00145195
0.00147589
0.00149753
0.00151713
0.00153499
0.00155139
0.00156652
0.00158051
0.00159347
0.00160546
0.00161658
0.00162689
0.00163648
0.00164543
0.00165379
0.00166164
0.00166902
0.00167597
0.00168251
0.00168869
0.00169452
0.00170003
0.00170523
0.00171015
0.0017148
0.0017192
0.00172336
0.00172731
0.00173106
0.00173462
0.001738
0.00174123
0.0017443
0.00174724
0.00175005
0.00175275
0.00175532
0.00175782
0.0017602
0.00176253
0.00176476
0.00176696
0.00176906
0.00177116
0.00177319
0.00177523
0.0017772
0.0017789
0.00178018
0.0017815
0.00178272
0.00178401
0.00178518
0.00178646
0.00178759
0.00178889
0.00178997
0.00179131
0.00179237
0.00179378
0.00179481
0.00179632
0.00179735
0.00179901
0.00180006
0.00180193
0.00180308
0.00180524
0.00180671
0.00180917
0.00181154
0.00179321
1.06823e-07
1.79365e-06
8.5545e-05
0.000348349
0.000576207
0.000757321
0.000905375
0.00102613
0.00112831
0.00121481
0.00128865
0.00135311
0.00140974
0.0014595
0.0015036
0.0015432
0.001579
0.00161141
0.00164076
0.00166742
0.00169181
0.00171425
0.00173498
0.00175419
0.001772
0.00178852
0.00180385
0.00181811
0.00183138
0.00184379
0.00185542
0.00186634
0.00187662
0.00188631
0.00189545
0.00190408
0.00191223
0.00191994
0.00192722
0.00193411
0.00194063
0.00194681
0.00195266
0.00195822
0.00196349
0.00196851
0.00197328
0.00197783
0.00198216
0.0019863
0.00199026
0.00199406
0.00199769
0.0020012
0.00200456
0.00200782
0.00201094
0.00201401
0.00201695
0.00201986
0.00202267
0.00202547
0.00202819
0.00203049
0.00203224
0.00203401
0.00203566
0.00203737
0.00203895
0.00204062
0.00204214
0.0020438
0.00204526
0.00204694
0.00204836
0.00205008
0.00205148
0.00205327
0.00205468
0.00205658
0.00205802
0.0020601
0.00206166
0.00206395
0.00206582
0.00206836
0.0020709
0.00205411
2.28039e-08
5.40137e-08
1.47226e-06
0.000101732
0.000380329
0.000606982
0.00079543
0.000950497
0.00108245
0.00119437
0.00129058
0.0013751
0.00144947
0.00151499
0.00157331
0.00162585
0.00167342
0.00171653
0.00175565
0.00179129
0.00182397
0.0018541
0.00188199
0.00190785
0.00193184
0.00195412
0.00197483
0.00199411
0.00201211
0.00202895
0.00204476
0.00205962
0.00207362
0.00208683
0.00209929
0.00211107
0.0021222
0.00213273
0.00214269
0.00215212
0.00216105
0.00216951
0.00217753
0.00218516
0.00219239
0.00219928
0.00220583
0.00221208
0.00221804
0.00222374
0.00222917
0.00223439
0.00223937
0.00224418
0.00224878
0.00225323
0.0022575
0.00226166
0.00226566
0.00226958
0.00227336
0.00227711
0.00228074
0.00228377
0.00228608
0.00228838
0.00229055
0.00229274
0.0022948
0.00229691
0.00229887
0.00230092
0.00230281
0.00230483
0.00230666
0.00230868
0.00231047
0.00231252
0.00231431
0.00231642
0.00231824
0.00232046
0.00232239
0.00232475
0.00232693
0.00232946
0.00233211
0.00231762
1.60465e-08
1.79341e-08
3.29534e-08
7.6125e-07
7.40815e-05
0.000336981
0.000583308
0.000779335
0.000948565
0.00109205
0.00121626
0.00132559
0.00142187
0.00150693
0.00158308
0.00165193
0.00171433
0.0017709
0.0018223
0.00186926
0.00191242
0.0019523
0.00198925
0.00202353
0.00205535
0.00208492
0.00211243
0.00213809
0.00216206
0.00218454
0.00220566
0.00222554
0.00224427
0.00226196
0.00227866
0.00229445
0.00230937
0.00232349
0.00233685
0.00234951
0.0023615
0.00237287
0.00238366
0.00239391
0.00240365
0.00241292
0.00242174
0.00243016
0.00243818
0.00244585
0.00245317
0.00246019
0.00246689
0.00247334
0.0024795
0.00248546
0.00249117
0.0024967
0.00250201
0.00250719
0.00251217
0.00251705
0.00252177
0.00252568
0.00252865
0.00253157
0.00253433
0.00253707
0.00253966
0.00254225
0.0025447
0.00254716
0.00254949
0.00255187
0.00255411
0.00255642
0.00255859
0.00256087
0.00256301
0.00256528
0.00256742
0.00256972
0.00257194
0.00257429
0.00257668
0.00257908
0.0025818
0.00257013
1.52742e-08
1.53843e-08
1.60494e-08
2.22466e-08
1.92582e-07
1.96341e-05
0.000197906
0.000468581
0.000691068
0.000871996
0.00103096
0.00117201
0.00129571
0.00140524
0.00150367
0.00159283
0.00167365
0.0017469
0.00181359
0.00187471
0.0019311
0.00198328
0.00203166
0.00207654
0.0021182
0.00215693
0.002193
0.00222669
0.00225821
0.00228782
0.00231565
0.00234188
0.00236662
0.00238997
0.00241203
0.00243289
0.0024526
0.00247126
0.00248891
0.00250565
0.0025215
0.00253655
0.00255083
0.0025644
0.0025773
0.00258959
0.00260129
0.00261245
0.00262308
0.00263325
0.00264295
0.00265224
0.0026611
0.00266961
0.00267776
0.00268559
0.00269309
0.00270033
0.00270726
0.00271397
0.00272041
0.00272668
0.00273271
0.00273763
0.00274138
0.002745
0.00274845
0.0027518
0.00275499
0.0027581
0.00276106
0.00276397
0.00276674
0.00276948
0.0027721
0.0027747
0.0027772
0.00277969
0.00278211
0.0027845
0.00278688
0.00278921
0.00279161
0.00279388
0.00279639
0.00279855
0.0028013
0.00279215
1.52079e-08
1.51244e-08
1.50881e-08
1.52451e-08
1.712e-08
4.05534e-08
8.09396e-07
4.09674e-05
0.000226818
0.000466607
0.000686748
0.000871139
0.00102767
0.00116711
0.00129416
0.00140948
0.00151354
0.00160765
0.00169348
0.0017724
0.00184531
0.00191288
0.0019755
0.00203357
0.00208745
0.00213757
0.0021843
0.00222802
0.00226905
0.00230763
0.00234395
0.0023782
0.0024105
0.002441
0.00246981
0.00249703
0.00252277
0.00254712
0.00257017
0.00259202
0.00261273
0.0026324
0.00265107
0.00266882
0.0026857
0.00270179
0.0027171
0.00273172
0.00274565
0.00275895
0.00277165
0.00278379
0.00279537
0.00280646
0.00281705
0.0028272
0.0028369
0.0028462
0.00285509
0.00286363
0.0028718
0.00287966
0.00288718
0.00289325
0.00289784
0.00290223
0.00290639
0.00291037
0.00291414
0.00291775
0.00292118
0.00292447
0.0029276
0.00293061
0.00293348
0.00293624
0.00293888
0.00294143
0.00294389
0.00294624
0.00294855
0.00295071
0.00295294
0.00295489
0.00295715
0.00295875
0.00296131
0.00295745
1.52137e-08
1.5143e-08
1.51046e-08
1.50254e-08
1.50441e-08
1.53962e-08
1.81332e-08
4.30992e-08
5.49943e-07
1.71781e-05
0.000134473
0.000327074
0.000529907
0.000725087
0.000898982
0.0010498
0.00118208
0.0013012
0.00141075
0.00151249
0.00160695
0.00169438
0.00177512
0.00184975
0.00191891
0.00198326
0.00204337
0.00209974
0.00215265
0.00220248
0.00224942
0.0022937
0.00233546
0.00237488
0.00241208
0.00244724
0.00248045
0.00251188
0.00254164
0.00256985
0.0025966
0.00262202
0.00264617
0.00266915
0.00269103
0.00271188
0.00273175
0.00275071
0.00276878
0.00278604
0.0028025
0.00281822
0.00283321
0.00284755
0.00286121
0.00287425
0.00288666
0.00289851
0.00290979
0.00292054
0.00293076
0.00294049
0.00294974
0.00295708
0.0029626
0.00296781
0.0029727
0.00297732
0.00298164
0.00298571
0.00298953
0.00299313
0.00299649
0.00299966
0.00300261
0.00300541
0.00300799
0.00301045
0.0030127
0.00301487
0.0030168
0.00301873
0.00302036
0.00302212
0.00302343
0.0030251
0.00302602
0.00302783
1.52239e-08
1.51764e-08
1.51495e-08
1.50977e-08
1.50683e-08
1.50258e-08
1.50529e-08
1.53247e-08
1.68393e-08
2.52407e-08
8.80126e-08
1.03209e-06
1.56901e-05
0.000102892
0.000244739
0.00040059
0.00056514
0.000728833
0.000883392
0.00102455
0.00115146
0.00126542
0.00136854
0.001463
0.00155051
0.00163235
0.00170928
0.00178183
0.00185026
0.00191478
0.00197555
0.00203276
0.00208659
0.00213729
0.00218505
0.00223011
0.00227266
0.00231291
0.00235103
0.00238719
0.00242151
0.00245414
0.00248518
0.00251474
0.00254287
0.00256969
0.00259524
0.00261962
0.00264285
0.00266502
0.00268615
0.00270632
0.00272553
0.00274384
0.00276128
0.0027779
0.0027937
0.00280872
0.00282298
0.0028365
0.0028493
0.0028614
0.00287281
0.00288177
0.00288848
0.00289475
0.00290059
0.00290603
0.00291109
0.00291579
0.00292015
0.00292418
0.0029279
0.00293134
0.00293449
0.00293739
0.00294002
0.00294244
0.00294461
0.00294659
0.00294834
0.00294994
0.00295132
0.00295256
0.00295362
0.00295455
0.00295537
0.00296177
1.52307e-08
1.51989e-08
1.51811e-08
1.51465e-08
1.51295e-08
1.50954e-08
1.508e-08
1.50506e-08
1.50599e-08
1.51066e-08
1.56241e-08
1.66999e-08
2.40318e-08
4.44944e-08
2.1912e-07
1.45019e-06
1.21894e-05
6.17048e-05
0.00015276
0.000257799
0.000370901
0.000491099
0.000615248
0.000739613
0.000860835
0.000976569
0.00108535
0.00118661
0.00128032
0.0013669
0.0014469
0.00152104
0.00158999
0.00165439
0.00171479
0.00177168
0.00182543
0.00187638
0.00192475
0.00197079
0.00201462
0.00205643
0.00209627
0.00213431
0.00217058
0.00220519
0.00223819
0.00226966
0.00229964
0.00232822
0.00235542
0.00238132
0.00240594
0.00242936
0.00245159
0.00247269
0.00249268
0.00251162
0.00252952
0.0025464
0.00256229
0.0025772
0.00259115
0.00260199
0.00261004
0.00261749
0.00262436
0.00263069
0.00263651
0.00264184
0.0026467
0.00265111
0.00265512
0.00265871
0.00266194
0.00266479
0.00266732
0.0026695
0.00267141
0.002673
0.00267436
0.00267541
0.00267629
0.00267686
0.00267735
0.00267748
0.00267796
0.00268957
1.52351e-08
1.52162e-08
1.52e-08
1.51814e-08
1.51658e-08
1.51487e-08
1.51337e-08
1.51178e-08
1.51023e-08
1.50887e-08
1.50793e-08
1.50858e-08
1.51461e-08
1.52663e-08
1.58122e-08
1.6775e-08
2.01151e-08
2.75688e-08
5.32713e-08
1.42733e-07
5.57641e-07
2.5432e-06
1.08884e-05
3.60363e-05
8.38414e-05
0.000145854
0.000213372
0.000284189
0.000358232
0.000435276
0.000514593
0.000595265
0.000676268
0.000756708
0.000835757
0.000912809
0.000987339
0.00105904
0.00112765
0.0011931
0.00125531
0.00131434
0.00137023
0.00142312
0.00147311
0.00152036
0.00156499
0.00160718
0.00164701
0.00168468
0.00172025
0.00175388
0.00178564
0.00181566
0.00184398
0.00187072
0.0018959
0.00191962
0.00194187
0.00196274
0.00198223
0.00200037
0.00201717
0.00203009
0.00203958
0.00204829
0.00205622
0.00206345
0.00206998
0.00207587
0.00208113
0.00208582
0.00208993
0.00209354
0.00209663
0.00209927
0.00210143
0.00210321
0.00210456
0.00210559
0.00210622
0.00210659
0.00210654
0.00210634
0.00210593
0.00210482
0.00210484
0.0021227
1.5239e-08
1.52284e-08
1.52212e-08
1.52097e-08
1.5203e-08
1.51923e-08
1.51861e-08
1.51761e-08
1.51703e-08
1.51608e-08
1.51545e-08
1.51457e-08
1.51406e-08
1.51349e-08
1.51362e-08
1.51416e-08
1.51641e-08
1.52056e-08
1.53175e-08
1.55163e-08
1.59542e-08
1.68385e-08
1.84259e-08
2.20431e-08
2.78183e-08
4.20557e-08
7.02912e-08
1.41319e-07
3.09602e-07
7.51523e-07
1.83974e-06
4.49299e-06
1.02239e-05
2.13512e-05
3.94377e-05
6.47915e-05
9.52972e-05
0.000129035
0.000164044
0.000199885
0.000235965
0.000272537
0.000309268
0.000346423
0.000383607
0.00042104
0.000458259
0.000495481
0.00053221
0.000568689
0.000604413
0.000639658
0.000673919
0.00070751
0.000739927
0.000771517
0.000801757
0.000830803
0.00085834
0.00088454
0.000909096
0.000932173
0.000953487
0.000969932
0.000981915
0.00099292
0.00100282
0.00101183
0.00101981
0.00102699
0.00103323
0.00103874
0.0010434
0.00104742
0.00105068
0.00105337
0.00105538
0.00105691
0.00105784
0.00105836
0.00105828
0.00105796
0.00105718
0.00105634
0.00105466
0.00105345
0.00105097
0.00107173
1.52414e-08
1.52386e-08
1.52347e-08
1.52317e-08
1.5228e-08
1.52252e-08
1.52217e-08
1.52192e-08
1.52158e-08
1.52135e-08
1.52103e-08
1.52081e-08
1.52051e-08
1.52027e-08
1.51997e-08
1.51976e-08
1.5195e-08
1.51936e-08
1.51923e-08
1.51926e-08
1.51941e-08
1.51979e-08
1.52062e-08
1.5224e-08
1.52497e-08
1.53046e-08
1.5374e-08
1.5519e-08