/*--------------------------------*- C++ -*----------------------------------*\
| =========                 |                                                 |
| \\      /  F ield         | OpenFOAM: The Open Source CFD Toolbox           |
|  \\    /   O peration     | Version:  5.x                                   |
|   \\  /    A nd           | Web:      www.OpenFOAM.org                      |
|    \\/     M anipulation  |                                                 |
\*---------------------------------------------------------------------------*/
FoamFile
{
    version     2.0;
    format      ascii;
    class       volVectorField;
    location    "0";
    object      U;
}
// * * * * * * * * * * * * * * * * * * * * * * * * * * * * * * * * * * * * * //

dimensions      [0 1 -1 0 0 0 0];

internalField   nonuniform List<vector> 
20540
(
(44.2 8.16827e-10 0)
(44.1999 -2.44351e-09 0)
(44.2 2.42143e-09 0)
        value           uniform (15.0 0 0);
(44.2 4.42234e-09 0)
(44.1999 -1.26757e-08 0)
(44.2 6.483e-09 0)
(44.1999 -1.88426e-08 0)
(44.2 8.24686e-09 0)
(44.1999 -2.61731e-08 0)
(44.2 9.98786e-09 0)
(44.1999 -3.52665e-08 0)
(44.2 1.24352e-08 0)
(44.1999 -4.68732e-08 0)
(44.2 1.52062e-08 0)
(44.1999 -6.09351e-08 0)
(44.2 1.81469e-08 0)
(44.1999 -7.80015e-08 0)
(44.2 2.20343e-08 0)
(44.1999 -9.86187e-08 0)
(44.2 2.6655e-08 0)
(44.1999 -1.23602e-07 0)
(44.2 3.20897e-08 0)
(44.1999 -1.53784e-07 0)
(44.2 3.86349e-08 0)
(44.1999 -1.90349e-07 0)
(44.2 4.6632e-08 0)
(44.1999 -2.34484e-07 0)
(44.2 5.6279e-08 0)
(44.1999 -2.87716e-07 0)
(44.2 6.79669e-08 0)
(44.1999 -3.51992e-07 0)
(44.2 8.21298e-08 0)
(44.1999 -4.29486e-07 0)
(44.2 9.92912e-08 0)
(44.1999 -5.22778e-07 0)
(44.2 1.20074e-07 0)
(44.1999 -6.34783e-07 0)
(44.2 1.4523e-07 0)
(44.1999 -7.68718e-07 0)
(44.2 1.7566e-07 0)
(44.1999 -9.28019e-07 0)
(44.2 2.125e-07 0)
(44.1999 -1.11593e-06 0)
(44.2 2.57133e-07 0)
(44.1999 -1.33484e-06 0)
(44.2 3.11223e-07 0)
(44.1999 -1.58494e-06 0)
(44.2 3.76841e-07 0)
(44.1999 -1.86195e-06 0)
(44.2 4.56502e-07 0)
(44.1999 -2.15309e-06 0)
(44.2 5.53304e-07 0)
(44.1999 -2.43067e-06 0)
(44.2 6.92774e-07 0)
(44.1999 -2.45248e-06 0)
(44.2 9.42444e-07 0)
(44.1999 -1.41091e-06 0)
(44.2 1.37093e-06 0)
(44.1999 1.41512e-06 0)
(44.2 1.76193e-06 0)
(44.1999 4.21677e-06 0)
(44.2 1.96235e-06 0)
(44.1999 5.74252e-06 0)
(44.2 2.09822e-06 0)
(44.1999 6.96483e-06 0)
(44.2 2.26406e-06 0)
(44.1999 8.70124e-06 0)
(44.2 2.52809e-06 0)
(44.1999 1.15419e-05 0)
(44.2 2.69554e-06 0)
(44.1999 1.38232e-05 0)
(44.2 2.62535e-06 0)
(44.1999 1.42897e-05 0)
(44.2 2.42656e-06 0)
(44.1999 1.37082e-05 0)
(44.2 2.16997e-06 0)
(44.1999 1.25818e-05 0)
(44.2 1.89847e-06 0)
(44.1999 1.12245e-05 0)
(44.2 1.63621e-06 0)
(44.1999 9.82284e-06 0)
(44.2 1.39543e-06 0)
(44.1999 8.48091e-06 0)
(44.2 1.1812e-06 0)
(44.1999 7.25123e-06 0)
(44.2 9.94434e-07 0)
(44.1999 6.15522e-06 0)
(44.2 8.33841e-07 0)
(44.1999 5.1963e-06 0)
(44.2 6.97043e-07 0)
(44.1999 4.36803e-06 0)
(44.2 5.81258e-07 0)
(44.1999 3.65914e-06 0)
(44.2 4.83726e-07 0)
(44.1999 3.0565e-06 0)
(44.2 4.01922e-07 0)
(44.1999 2.5466e-06 0)
(44.2 3.33386e-07 0)
(44.1999 2.11676e-06 0)
(44.2 2.76047e-07 0)
(44.1999 1.75552e-06 0)
(44.2 2.28218e-07 0)
(44.1999 1.45251e-06 0)
(44.2 1.88347e-07 0)
(44.1999 1.19872e-06 0)
(44.2 1.55062e-07 0)
(44.1999 9.86517e-07 0)
(44.2 1.27387e-07 0)
(44.1999 8.09169e-07 0)
(44.2 1.04173e-07 0)
(44.1999 6.61167e-07 0)
(44.2 8.47594e-08 0)
(44.1999 5.37726e-07 0)
(44.2 6.86951e-08 0)
(44.1999 4.34774e-07 0)
(44.2 5.52943e-08 0)
(44.1999 3.48793e-07 0)
(44.2 4.42442e-08 0)
(44.1999 2.77415e-07 0)
(44.2 3.51952e-08 0)
(44.1999 2.17984e-07 0)
(44.2 2.77328e-08 0)
(44.1999 1.68503e-07 0)
(44.2 1.79087e-08 0)
(44.1999 1.06446e-07 0)
(44.2 1.91463e-09 0)
(44.1999 9.16318e-10 0)
(44.2 -3.83866e-09 0)
(44.1999 -3.23766e-08 0)
(44.1997 -1.26912e-08 0)
(44.1995 -1.14643e-08 0)
(44.1994 -9.9516e-09 0)
(44.1993 -6.44861e-09 0)
(44.1992 -3.63313e-09 0)
(44.1992 -1.75516e-09 0)
(44.1992 -2.02119e-09 0)
(44.1991 -2.13754e-09 0)
(44.1991 -3.43623e-09 0)
(44.199 -3.51622e-09 0)
(44.199 -3.27385e-09 0)
(44.199 -3.51205e-09 0)
(44.199 -3.17828e-09 0)
(44.1989 -3.25509e-09 0)
(44.1989 -2.91076e-09 0)
(44.1989 -3.36868e-09 0)
(44.1989 -2.23942e-09 0)
(44.1989 -2.55027e-09 0)
(44.1989 -1.44726e-09 0)
(44.1989 -1.66891e-09 0)
(44.1989 -4.35846e-10 0)
(44.1989 -8.37698e-11 0)
(44.1989 1.22215e-09 0)
(44.1989 1.36837e-09 0)
(44.1989 2.62899e-09 0)
(44.1989 3.21199e-09 0)
(44.199 3.96224e-09 0)
(44.199 3.95954e-09 0)
(44.199 3.58068e-09 0)
(44.199 1.33072e-09 0)
(44.1991 -2.63658e-09 0)
(44.1991 -9.38173e-09 0)
(44.1991 -2.07839e-08 0)
(44.1992 -3.87782e-08 0)
(44.1993 -6.667e-08 0)
(44.1994 -1.09985e-07 0)
(44.1996 -1.75283e-07 0)
(44.1998 -2.73751e-07 0)
(44.2002 -4.18285e-07 0)
(44.2008 -6.29355e-07 0)
(44.2015 -9.30492e-07 0)
(44.2026 -1.35576e-06 0)
(44.2041 -1.9474e-06 0)
(44.2061 -2.76018e-06 0)
(44.2088 -3.8626e-06 0)
(44.2124 -5.34055e-06 0)
(44.2172 -7.3002e-06 0)
(44.2235 -9.87257e-06 0)
(44.2316 -1.32156e-05 0)
(44.242 -1.75233e-05 0)
(44.2552 -2.30293e-05 0)
(44.2718 -3.00179e-05 0)
(44.2926 -3.88327e-05 0)
(44.3185 -4.98931e-05 0)
(44.3503 -6.37098e-05 0)
(44.3894 -8.09275e-05 0)
(44.4371 -0.00010232 0)
(44.4951 -0.00012894 0)
(44.5655 -0.000162019 0)
(44.6506 -0.000203346 0)
(44.7535 -0.000255063 0)
(44.878 -0.000320347 0)
(45.0287 -0.000403288 0)
(45.176 -0.000492444 0)
(45.3125 -0.000575353 0)
(45.4641 -0.000672099 0)
(45.6324 -0.000784835 0)
(45.8195 -0.000917007 0)
(46.0274 -0.00107218 0)
(46.2588 -0.00125556 0)
(46.5167 -0.00147308 0)
(46.805 -0.00173306 0)
(47.1281 -0.00204569 0)
(47.4917 -0.00242509 0)
(47.9027 -0.00288967 0)
(48.37 -0.00346524 0)
(48.9053 -0.0041875 0)
(49.5235 -0.00510831 0)
(50.2453 -0.00630417 0)
(51.0991 -0.00789318 0)
(52.126 -0.0100649 0)
(53.3878 -0.0131415 0)
(54.9825 -0.01771 0)
(57.0784 -0.0249453 0)
(59.9953 -0.0375271 0)
(64.4502 -0.0629226 0)
(72.5974 -0.13071 0)
(98.4553 -0.519544 0)
(44.1997 -3.52452e-08 0)
(44.1995 -3.24391e-08 0)
(44.1994 -2.73494e-08 0)
(44.1993 -1.88388e-08 0)
(44.1992 -8.9872e-09 0)
(44.1992 -5.52575e-09 0)
(44.1992 -4.28676e-09 0)
(44.1991 -7.05388e-09 0)
(44.1991 -8.52448e-09 0)
(44.199 -1.07461e-08 0)
(44.199 -8.80083e-09 0)
(44.199 -1.11997e-08 0)
(44.199 -8.19701e-09 0)
(44.1989 -1.06698e-08 0)
(44.1989 -7.3462e-09 0)
(44.1989 -1.02736e-08 0)
(44.1989 -5.8225e-09 0)
(44.1989 -8.1118e-09 0)
(44.1989 -3.60699e-09 0)
(44.1989 -5.59084e-09 0)
(44.1989 -2.45285e-10 0)
(44.1989 -1.18296e-09 0)
(44.1989 3.78593e-09 0)
(44.1989 3.66424e-09 0)
(44.1989 8.3247e-09 0)
(44.1989 9.19024e-09 0)
(44.199 1.19315e-08 0)
(44.199 1.11476e-08 0)
(44.199 9.95707e-09 0)
(44.199 2.54046e-09 0)
(44.1991 -9.63284e-09 0)
(44.1991 -3.17549e-08 0)
(44.1991 -6.82519e-08 0)
(44.1992 -1.25899e-07 0)
(44.1993 -2.15204e-07 0)
(44.1994 -3.54207e-07 0)
(44.1996 -5.639e-07 0)
(44.1998 -8.79581e-07 0)
(44.2002 -1.34413e-06 0)
(44.2008 -2.02118e-06 0)
(44.2015 -2.9881e-06 0)
(44.2026 -4.35369e-06 0)
(44.2041 -6.25249e-06 0)
(44.2061 -8.86138e-06 0)
(44.2088 -1.23999e-05 0)
(44.2124 -1.71444e-05 0)
(44.2172 -2.34343e-05 0)
(44.2235 -3.16907e-05 0)
(44.2316 -4.24207e-05 0)
(44.242 -5.62473e-05 0)
(44.2552 -7.39201e-05 0)
(44.2718 -9.63515e-05 0)
(44.2926 -0.000124644 0)
(44.3185 -0.000160145 0)
(44.3503 -0.000204492 0)
(44.3894 -0.000259756 0)
(44.4371 -0.000328421 0)
(44.4951 -0.000413861 0)
(44.5655 -0.000520042 0)
(44.6506 -0.000652686 0)
(44.7535 -0.00081869 0)
(44.878 -0.00102823 0)
(45.0287 -0.00129445 0)
(45.176 -0.00158062 0)
(45.3125 -0.00184675 0)
(45.4641 -0.00215726 0)
(45.6324 -0.00251912 0)
(45.8195 -0.00294334 0)
(46.0274 -0.00344142 0)
(46.2588 -0.00402999 0)
(46.5167 -0.00472819 0)
(46.805 -0.00556264 0)
(47.1281 -0.00656611 0)
(47.4917 -0.00778386 0)
(47.9027 -0.00927503 0)
(48.37 -0.0111224 0)
(48.9052 -0.0134407 0)
(49.5235 -0.0163962 0)
(50.2452 -0.0202345 0)
(51.099 -0.0253347 0)
(52.1259 -0.032305 0)
(53.3876 -0.0421799 0)
(54.9823 -0.0568428 0)
(57.0779 -0.0800642 0)
(59.9944 -0.120443 0)
(64.4478 -0.201933 0)
(72.585 -0.419284 0)
(97.3331 -1.63376 0)
(44.1997 -5.46299e-08 0)
(44.1995 -5.19361e-08 0)
(44.1994 -4.22518e-08 0)
(44.1993 -3.09991e-08 0)
(44.1992 -1.28883e-08 0)
(44.1992 -1.08004e-08 0)
(44.1992 -4.7371e-09 0)
(44.1991 -1.34665e-08 0)
(44.1991 -1.14644e-08 0)
(44.199 -1.96054e-08 0)
(44.199 -1.26282e-08 0)
(44.199 -2.07737e-08 0)
(44.199 -1.13243e-08 0)
(44.1989 -2.01787e-08 0)
(44.1989 -1.04769e-08 0)
(44.1989 -1.86435e-08 0)
(44.1989 -8.13658e-09 0)
(44.1989 -1.5131e-08 0)
(44.1989 -4.57182e-09 0)
(44.1989 -1.02638e-08 0)
(44.1989 7.38058e-10 0)
(44.1989 -3.40341e-09 0)
(44.1989 7.1133e-09 0)
(44.1989 5.82058e-09 0)
(44.1989 1.47382e-08 0)
(44.1989 1.486e-08 0)
(44.199 2.06596e-08 0)
(44.199 1.82235e-08 0)
(44.199 1.59939e-08 0)
(44.199 1.93559e-09 0)
(44.1991 -2.00822e-08 0)
(44.1991 -6.11666e-08 0)
(44.1991 -1.27294e-07 0)
(44.1992 -2.33208e-07 0)
(44.1993 -3.96592e-07 0)
(44.1994 -6.51069e-07 0)
(44.1996 -1.03571e-06 0)
(44.1998 -1.61421e-06 0)
(44.2002 -2.46647e-06 0)
(44.2008 -3.70694e-06 0)
(44.2015 -5.47962e-06 0)
(44.2026 -7.98281e-06 0)
(44.2041 -1.14633e-05 0)
(44.2061 -1.62453e-05 0)
(44.2088 -2.27308e-05 0)
(44.2124 -3.14271e-05 0)
(44.2172 -4.29558e-05 0)
(44.2235 -5.80879e-05 0)
(44.2316 -7.77541e-05 0)
(44.242 -0.000103096 0)
(44.2552 -0.000135488 0)
(44.2718 -0.0001766 0)
(44.2926 -0.000228456 0)
(44.3185 -0.000293523 0)
(44.3503 -0.000374801 0)
(44.3894 -0.00047609 0)
(44.4371 -0.000601943 0)
(44.4951 -0.000758539 0)
(44.5655 -0.000953159 0)
(44.6506 -0.00119627 0)
(44.7535 -0.00150053 0)
(44.878 -0.00188458 0)
(45.0287 -0.00237253 0)
(45.176 -0.00289702 0)
(45.3125 -0.00338482 0)
(45.4641 -0.00395389 0)
(45.6324 -0.00461716 0)
(45.8195 -0.00539464 0)
(46.0274 -0.00630756 0)
(46.2588 -0.00738627 0)
(46.5167 -0.00866597 0)
(46.805 -0.0101953 0)
(47.1281 -0.0120345 0)
(47.4916 -0.0142664 0)
(47.9026 -0.0169995 0)
(48.37 -0.0203854 0)
(48.9052 -0.0246342 0)
(49.5234 -0.030051 0)
(50.2451 -0.0370858 0)
(51.0988 -0.0464331 0)
(52.1257 -0.0592078 0)
(53.3872 -0.0773051 0)
(54.9816 -0.104176 0)
(57.0767 -0.146729 0)
(59.9919 -0.220712 0)
(64.4414 -0.369964 0)
(72.553 -0.76732 0)
(96.0155 -2.90086 0)
(44.1997 -7.52587e-08 0)
(44.1995 -7.19966e-08 0)
(44.1994 -5.76081e-08 0)
(44.1993 -4.3116e-08 0)
(44.1992 -1.65204e-08 0)
(44.1992 -1.73447e-08 0)
(44.1992 -4.94306e-09 0)
(44.1991 -2.12685e-08 0)
(44.1991 -1.4077e-08 0)
(44.199 -3.06997e-08 0)
(44.199 -1.57033e-08 0)
(44.199 -3.23818e-08 0)
(44.199 -1.3864e-08 0)
(44.1989 -3.12418e-08 0)
(44.1989 -1.3435e-08 0)
(44.1989 -2.90728e-08 0)
(44.1989 -1.01521e-08 0)
(44.1989 -2.36392e-08 0)
(44.1989 -5.25929e-09 0)
(44.1989 -1.57712e-08 0)
(44.1989 1.88582e-09 0)
(44.1989 -5.76221e-09 0)
(44.1989 1.1313e-08 0)
(44.1989 7.92846e-09 0)
(44.1989 2.24054e-08 0)
(44.1989 2.15747e-08 0)
(44.199 3.08848e-08 0)
(44.199 2.62303e-08 0)
(44.199 2.272e-08 0)
(44.199 6.65358e-10 0)
(44.1991 -3.36136e-08 0)
(44.1991 -9.75181e-08 0)
(44.1991 -1.9928e-07 0)
(44.1992 -3.63371e-07 0)
(44.1993 -6.16429e-07 0)
(44.1994 -1.01064e-06 0)
(44.1996 -1.60697e-06 0)
(44.1998 -2.5039e-06 0)
(44.2002 -3.82488e-06 0)
(44.2008 -5.74717e-06 0)
(44.2015 -8.49458e-06 0)
(44.2026 -1.23738e-05 0)
(44.2041 -1.77679e-05 0)
(44.2061 -2.51791e-05 0)
(44.2088 -3.52297e-05 0)
(44.2124 -4.87062e-05 0)
(44.2172 -6.65725e-05 0)
(44.2235 -9.00223e-05 0)
(44.2316 -0.000120499 0)
(44.242 -0.000159771 0)
(44.2552 -0.000209969 0)
(44.2718 -0.000273681 0)
(44.2926 -0.000354041 0)
(44.3185 -0.000454874 0)
(44.3503 -0.000580828 0)
(44.3894 -0.000737795 0)
(44.4371 -0.000932829 0)
(44.4951 -0.0011755 0)
(44.5655 -0.00147711 0)
(44.6506 -0.00185385 0)
(44.7535 -0.00232538 0)
(44.878 -0.00292052 0)
(45.0287 -0.0036767 0)
(45.176 -0.00448949 0)
(45.3125 -0.00524547 0)
(45.464 -0.00612731 0)
(45.6324 -0.00715519 0)
(45.8195 -0.00836001 0)
(46.0274 -0.00977476 0)
(46.2587 -0.0114464 0)
(46.5167 -0.0134295 0)
(46.8049 -0.0157995 0)
(47.128 -0.0186497 0)
(47.4916 -0.0221083 0)
(47.9025 -0.0263436 0)
(48.3699 -0.0315905 0)
(48.905 -0.0381746 0)
(49.5232 -0.0465685 0)
(50.2448 -0.0574694 0)
(51.0985 -0.0719535 0)
(52.1251 -0.0917478 0)
(53.3863 -0.119788 0)
(54.9802 -0.16142 0)
(57.0742 -0.227338 0)
(59.987 -0.341912 0)
(64.4286 -0.572887 0)
(72.4912 -1.18571 0)
(94.483 -4.32252 0)
(44.1997 -9.96297e-08 0)
(44.1995 -9.43977e-08 0)
(44.1994 -7.48389e-08 0)
(44.1993 -5.61054e-08 0)
(44.1992 -1.99638e-08 0)
(44.1992 -2.47027e-08 0)
(44.1992 -4.7371e-09 0)
(44.1991 -3.12081e-08 0)
(44.1991 -1.66854e-08 0)
(44.199 -4.38434e-08 0)
(44.199 -1.8918e-08 0)
(44.199 -4.62024e-08 0)
(44.199 -1.65411e-08 0)
(44.1989 -4.42538e-08 0)
(44.1989 -1.63337e-08 0)
(44.1989 -4.14685e-08 0)
(44.1989 -1.23879e-08 0)
(44.1989 -3.37867e-08 0)
(44.1989 -5.86123e-09 0)
(44.1989 -2.27415e-08 0)
(44.1989 3.81069e-09 0)
(44.1989 -8.27235e-09 0)
(44.1989 1.64646e-08 0)
(44.1989 1.03091e-08 0)
(44.1989 3.18107e-08 0)
(44.1989 2.96375e-08 0)
(44.199 4.31782e-08 0)
(44.199 3.53944e-08 0)
(44.199 3.04513e-08 0)
(44.199 -1.14925e-09 0)
(44.1991 -5.00322e-08 0)
(44.1991 -1.41773e-07 0)
(44.1991 -2.86562e-07 0)
(44.1992 -5.20788e-07 0)
(44.1993 -8.82549e-07 0)
(44.1994 -1.4458e-06 0)
(44.1996 -2.29807e-06 0)
(44.1998 -3.58027e-06 0)
(44.2002 -5.46809e-06 0)
(44.2008 -8.21516e-06 0)
(44.2015 -1.21421e-05 0)
(44.2026 -1.7686e-05 0)
(44.2041 -2.53951e-05 0)
(44.2061 -3.59868e-05 0)
(44.2088 -5.03501e-05 0)
(44.2124 -6.96094e-05 0)
(44.2172 -9.51425e-05 0)
(44.2235 -0.000128654 0)
(44.2316 -0.000172209 0)
(44.242 -0.000228333 0)
(44.2552 -0.00030007 0)
(44.2718 -0.000391122 0)
(44.2926 -0.000505963 0)
(44.3185 -0.000650065 0)
(44.3503 -0.000830063 0)
(44.3894 -0.00105439 0)
(44.4371 -0.00133311 0)
(44.4951 -0.00167991 0)
(44.5655 -0.00211094 0)
(44.6506 -0.00264933 0)
(44.7535 -0.00332321 0)
(44.8779 -0.00417372 0)
(45.0287 -0.00525437 0)
(45.176 -0.00641592 0)
(45.3124 -0.00749631 0)
(45.464 -0.0087565 0)
(45.6324 -0.0102255 0)
(45.8194 -0.0119472 0)
(46.0273 -0.013969 0)
(46.2587 -0.0163579 0)
(46.5166 -0.0191919 0)
(46.8049 -0.0225787 0)
(47.1279 -0.0266518 0)
(47.4915 -0.0315943 0)
(47.9024 -0.0376466 0)
(48.3697 -0.0451445 0)
(48.9048 -0.0545531 0)
(49.5228 -0.0665475 0)
(50.2443 -0.082124 0)
(51.0978 -0.10282 0)
(52.1241 -0.131101 0)
(53.3848 -0.171161 0)
(54.9777 -0.230631 0)
(57.0698 -0.324768 0)
(59.9781 -0.488313 0)
(64.4058 -0.817591 0)
(72.3857 -1.6863 0)
(92.7169 -5.89168 0)
(44.1997 -1.2862e-07 0)
(44.1995 -1.21443e-07 0)
(44.1994 -9.54728e-08 0)
(44.1993 -7.17912e-08 0)
(44.1992 -2.42672e-08 0)
(44.1992 -3.40691e-08 0)
(44.1992 -4.67243e-09 0)
(44.1991 -4.38083e-08 0)
(44.1991 -1.94666e-08 0)
(44.199 -5.97344e-08 0)
(44.199 -2.29801e-08 0)
(44.199 -6.29889e-08 0)
(44.199 -1.99527e-08 0)
(44.1989 -6.0401e-08 0)
(44.1989 -1.95806e-08 0)
(44.1989 -5.63895e-08 0)
(44.1989 -1.48736e-08 0)
(44.1989 -4.61026e-08 0)
(44.1989 -6.23016e-09 0)
(44.1989 -3.10672e-08 0)
(44.1989 6.15298e-09 0)
(44.1989 -1.12731e-08 0)
(44.1989 2.29469e-08 0)
(44.1989 1.36986e-08 0)
(44.1989 4.32143e-08 0)
(44.1989 3.9243e-08 0)
(44.199 5.80286e-08 0)
(44.199 4.66495e-08 0)
(44.199 3.99137e-08 0)
(44.199 -3.55257e-09 0)
(44.1991 -7.00415e-08 0)
(44.1991 -1.95515e-07 0)
(44.1991 -3.92149e-07 0)
(44.1992 -7.11377e-07 0)
(44.1993 -1.2046e-06 0)
(44.1994 -1.97228e-06 0)
(44.1996 -3.13408e-06 0)
(44.1998 -4.88227e-06 0)
(44.2002 -7.45595e-06 0)
(44.2008 -1.12009e-05 0)
(44.2015 -1.65546e-05 0)
(44.2026 -2.41123e-05 0)
(44.204 -3.4622e-05 0)
(44.2061 -4.90611e-05 0)
(44.2088 -6.86415e-05 0)
(44.2124 -9.48967e-05 0)
(44.2172 -0.000129704 0)
(44.2235 -0.000175388 0)
(44.2316 -0.000234763 0)
(44.242 -0.000311273 0)
(44.2552 -0.000409068 0)
(44.2718 -0.000533192 0)
(44.2926 -0.000689747 0)
(44.3185 -0.00088619 0)
(44.3503 -0.00113156 0)
(44.3894 -0.00143737 0)
(44.4371 -0.00181733 0)
(44.4951 -0.0022901 0)
(44.5655 -0.0028777 0)
(44.6506 -0.00361164 0)
(44.7535 -0.00453029 0)
(44.8779 -0.00568971 0)
(45.0287 -0.00716289 0)
(45.176 -0.00874632 0)
(45.3124 -0.0102191 0)
(45.464 -0.011937 0)
(45.6323 -0.0139395 0)
(45.8194 -0.0162866 0)
(46.0273 -0.0190427 0)
(46.2586 -0.0222991 0)
(46.5165 -0.0261624 0)
(46.8048 -0.0307792 0)
(47.1278 -0.0363314 0)
(47.4913 -0.0430686 0)
(47.9021 -0.0513185 0)
(48.3693 -0.0615387 0)
(48.9043 -0.074363 0)
(49.5222 -0.0907113 0)
(50.2435 -0.111941 0)
(51.0966 -0.140146 0)
(52.1224 -0.178686 0)
(53.3822 -0.233268 0)
(54.9735 -0.314277 0)
(57.0624 -0.442459 0)
(59.9631 -0.664967 0)
(64.3675 -1.11202 0)
(72.2184 -2.2812 0)
(90.7028 -7.58923 0)
(44.1997 -1.63266e-07 0)
(44.1995 -1.53951e-07 0)
(44.1994 -1.20121e-07 0)
(44.1993 -9.05843e-08 0)
(44.1992 -2.92449e-08 0)
(44.1992 -4.54878e-08 0)
(44.1992 -4.72589e-09 0)
(44.1991 -5.8878e-08 0)
(44.1991 -2.27942e-08 0)
(44.199 -7.9107e-08 0)
(44.199 -2.80165e-08 0)
(44.199 -8.31998e-08 0)
(44.199 -2.45354e-08 0)
(44.1989 -8.01003e-08 0)
(44.1989 -2.34349e-08 0)
(44.1989 -7.44943e-08 0)
(44.1989 -1.76392e-08 0)
(44.1989 -6.07711e-08 0)
(44.1989 -6.91467e-09 0)
(44.1989 -4.10513e-08 0)
(44.1989 8.9468e-09 0)
(44.1989 -1.5024e-08 0)
(44.1989 3.08757e-08 0)
(44.1989 1.7883e-08 0)
(44.1989 5.71689e-08 0)
(44.1989 5.11436e-08 0)
(44.199 7.60488e-08 0)
(44.199 6.03969e-08 0)
(44.199 5.1486e-08 0)
(44.199 -6.74151e-09 0)
(44.1991 -9.43357e-08 0)
(44.1991 -2.60593e-07 0)
(44.1991 -5.20104e-07 0)
(44.1992 -9.42032e-07 0)
(44.1993 -1.59391e-06 0)
(44.1994 -2.60925e-06 0)
(44.1996 -4.14547e-06 0)
(44.1998 -6.45733e-06 0)
(44.2002 -9.86068e-06 0)
(44.2008 -1.48128e-05 0)
(44.2015 -2.18924e-05 0)
(44.2026 -3.18863e-05 0)
(44.204 -4.57838e-05 0)
(44.2061 -6.48772e-05 0)
(44.2088 -9.07691e-05 0)
(44.2124 -0.000125487 0)
(44.2172 -0.000171514 0)
(44.2235 -0.000231922 0)
(44.2316 -0.000310435 0)
(44.242 -0.000411606 0)
(44.2552 -0.000540923 0)
(44.2718 -0.000705056 0)
(44.2926 -0.00091207 0)
(44.3184 -0.00117183 0)
(44.3503 -0.00149629 0)
(44.3894 -0.00190066 0)
(44.4371 -0.00240309 0)
(44.4951 -0.00302824 0)
(44.5655 -0.00380524 0)
(44.6506 -0.00477573 0)
(44.7535 -0.00599049 0)
(44.8779 -0.00752359 0)
(45.0287 -0.00947158 0)
(45.1759 -0.0115653 0)
(45.3124 -0.0135129 0)
(45.4639 -0.0157843 0)
(45.6323 -0.0184322 0)
(45.8193 -0.0215356 0)
(46.0272 -0.02518 0)
(46.2585 -0.0294857 0)
(46.5164 -0.034594 0)
(46.8046 -0.0406982 0)
(47.1276 -0.0480393 0)
(47.491 -0.056947 0)
(47.9017 -0.0678546 0)
(48.3688 -0.0813664 0)
(48.9036 -0.0983206 0)
(49.5213 -0.119932 0)
(50.2422 -0.147995 0)
(51.0948 -0.185273 0)
(52.1197 -0.236204 0)
(53.378 -0.308318 0)
(54.9667 -0.415307 0)
(57.0503 -0.584486 0)
(59.939 -0.877775 0)
(64.3063 -1.46508 0)
(71.9656 -2.98156 0)
(88.4321 -9.38084 0)
(44.1997 -2.04983e-07 0)
(44.1995 -1.93081e-07 0)
(44.1994 -1.49905e-07 0)
(44.1993 -1.13215e-07 0)
(44.1992 -3.49778e-08 0)
(44.1992 -5.92069e-08 0)
(44.1992 -4.53311e-09 0)
(44.1991 -7.70583e-08 0)
(44.1991 -2.69537e-08 0)
(44.199 -1.02544e-07 0)
(44.199 -3.3833e-08 0)
(44.199 -1.07733e-07 0)
(44.199 -3.0005e-08 0)
(44.1989 -1.03927e-07 0)
(44.1989 -2.80855e-08 0)
(44.1989 -9.64435e-08 0)
(44.1989 -2.09691e-08 0)
(44.1989 -7.87382e-08 0)
(44.1989 -7.79512e-09 0)
(44.1989 -5.32949e-08 0)
(44.1989 1.24975e-08 0)
(44.1989 -1.94186e-08 0)
(44.1989 4.04836e-08 0)
(44.1989 2.3014e-08 0)
(44.1989 7.41457e-08 0)
(44.1989 6.55236e-08 0)
(44.199 9.80396e-08 0)
(44.199 7.71598e-08 0)
(44.199 6.53946e-08 0)
(44.199 -1.06178e-08 0)
(44.1991 -1.23836e-07 0)
(44.1991 -3.39399e-07 0)
(44.1991 -6.74862e-07 0)
(44.1992 -1.22117e-06 0)
(44.1993 -2.0649e-06 0)
(44.1994 -3.37976e-06 0)
(44.1996 -5.36899e-06 0)
(44.1998 -8.36261e-06 0)
(44.2002 -1.27696e-05 0)
(44.2008 -1.91821e-05 0)
(44.2015 -2.83496e-05 0)
(44.2026 -4.12905e-05 0)
(44.204 -5.92863e-05 0)
(44.2061 -8.401e-05 0)
(44.2088 -0.000117537 0)
(44.2124 -0.000162492 0)
(44.2172 -0.000222091 0)
(44.2235 -0.000300311 0)
(44.2316 -0.000401976 0)
(44.242 -0.000532979 0)
(44.2552 -0.000700428 0)
(44.2718 -0.000912958 0)
(44.2926 -0.00118101 0)
(44.3184 -0.00151737 0)
(44.3503 -0.0019375 0)
(44.3894 -0.0024611 0)
(44.4371 -0.00311167 0)
(44.4951 -0.00392116 0)
(44.5655 -0.00492726 0)
(44.6506 -0.00618391 0)
(44.7535 -0.00775684 0)
(44.8779 -0.00974196 0)
(45.0286 -0.0122643 0)
(45.1759 -0.0149753 0)
(45.3123 -0.0174971 0)
(45.4639 -0.0204382 0)
(45.6322 -0.0238667 0)
(45.8192 -0.0278849 0)
(46.027 -0.0326035 0)
(46.2583 -0.0381783 0)
(46.5162 -0.0447921 0)
(46.8043 -0.0526953 0)
(47.1272 -0.0621996 0)
(47.4905 -0.0737317 0)
(47.9011 -0.0878523 0)
(48.368 -0.105343 0)
(48.9025 -0.127289 0)
(49.5198 -0.155261 0)
(50.2401 -0.191578 0)
(51.0918 -0.239813 0)
(52.1153 -0.305698 0)
(53.3714 -0.398951 0)
(54.9559 -0.53722 0)
(57.0314 -0.755637 0)
(59.901 -1.13351 0)
(64.2111 -1.88632 0)
(71.5987 -3.79556 0)
(85.9058 -11.2144 0)
(44.1997 -2.55352e-07 0)
(44.1995 -2.40208e-07 0)
(44.1994 -1.86013e-07 0)
(44.1993 -1.40724e-07 0)
(44.1992 -4.18842e-08 0)
(44.1992 -7.58561e-08 0)
(44.1992 -4.37667e-09 0)
(44.1991 -9.90749e-08 0)
(44.1991 -3.21298e-08 0)
(44.199 -1.30762e-07 0)
(44.199 -4.08156e-08 0)
(44.199 -1.37398e-07 0)
(44.199 -3.64684e-08 0)
(44.1989 -1.32638e-07 0)
(44.1989 -3.36219e-08 0)
(44.1989 -1.22948e-07 0)
(44.1989 -2.51493e-08 0)
(44.1989 -1.00695e-07 0)
(44.1989 -8.67588e-09 0)
(44.1989 -6.82349e-08 0)
(44.1989 1.68909e-08 0)
(44.1989 -2.46948e-08 0)
(44.1989 5.22136e-08 0)
(44.1989 2.93274e-08 0)
(44.1989 9.46924e-08 0)
(44.1989 8.29931e-08 0)
(44.199 1.2463e-07 0)
(44.199 9.74515e-08 0)
(44.199 8.20298e-08 0)
(44.199 -1.51501e-08 0)
(44.1991 -1.59556e-07 0)
(44.1991 -4.34649e-07 0)
(44.1991 -8.6203e-07 0)
(44.1992 -1.55885e-06 0)
(44.1993 -2.63479e-06 0)
(44.1994 -4.31182e-06 0)
(44.1996 -6.84907e-06 0)
(44.1998 -1.06674e-05 0)
(44.2002 -1.62886e-05 0)
(44.2008 -2.44678e-05 0)
(44.2015 -3.61607e-05 0)
(44.2026 -5.26667e-05 0)
(44.204 -7.56202e-05 0)
(44.2061 -0.000107155 0)
(44.2088 -0.000149917 0)
(44.2124 -0.000207256 0)
(44.2172 -0.000283273 0)
(44.2235 -0.000383041 0)
(44.2316 -0.000512711 0)
(44.242 -0.000679801 0)
(44.2552 -0.000893377 0)
(44.2718 -0.00116445 0)
(44.2926 -0.00150635 0)
(44.3184 -0.00193536 0)
(44.3503 -0.00247122 0)
(44.3894 -0.00313905 0)
(44.4371 -0.00396882 0)
(44.4951 -0.00500129 0)
(44.5654 -0.00628453 0)
(44.6505 -0.0078873 0)
(44.7534 -0.00989349 0)
(44.8778 -0.0124254 0)
(45.0286 -0.0156424 0)
(45.1758 -0.0191001 0)
(45.3122 -0.0223163 0)
(45.4637 -0.0260673 0)
(45.632 -0.0304399 0)
(45.819 -0.0355644 0)
(46.0268 -0.0415822 0)
(46.258 -0.0486916 0)
(46.5158 -0.057126 0)
(46.8038 -0.0672041 0)
(47.1266 -0.0793237 0)
(47.4897 -0.0940281 0)
(47.9001 -0.112032 0)
(48.3667 -0.134331 0)
(48.9008 -0.162307 0)
(49.5174 -0.19796 0)
(50.2369 -0.244241 0)
(51.0872 -0.305694 0)
(52.1086 -0.3896 0)
(53.3611 -0.508294 0)
(54.9392 -0.684125 0)
(57.002 -0.961437 0)
(59.8425 -1.43969 0)
(64.0671 -2.38527 0)
(71.0843 -4.72553 0)
(83.137 -13.0194 0)
(44.1997 -3.16468e-07 0)
(44.1995 -2.97193e-07 0)
(44.1994 -2.29405e-07 0)
(44.1993 -1.74e-07 0)
(44.1992 -5.02007e-08 0)
(44.1992 -9.59881e-08 0)
(44.1992 -4.24349e-09 0)
(44.1991 -1.25848e-07 0)
(44.1991 -3.83818e-08 0)
(44.199 -1.64973e-07 0)
(44.199 -4.93509e-08 0)
(44.199 -1.7322e-07 0)
(44.199 -4.43372e-08 0)
(44.1989 -1.67307e-07 0)
(44.1989 -4.03393e-08 0)
(44.1989 -1.54895e-07 0)
(44.1989 -3.0098e-08 0)
(44.1989 -1.2718e-07 0)
(44.1989 -9.75522e-09 0)
(44.1989 -8.61397e-08 0)
(44.1989 2.21671e-08 0)
(44.1989 -3.11281e-08 0)
(44.1989 6.64155e-08 0)
(44.1989 3.69844e-08 0)
(44.1989 1.19522e-07 0)
(44.1989 1.04205e-07 0)
(44.199 1.56812e-07 0)
(44.199 1.21816e-07 0)
(44.199 1.02199e-07 0)
(44.199 -2.07033e-08 0)
(44.1991 -2.02758e-07 0)
(44.1991 -5.49804e-07 0)
(44.1991 -1.08847e-06 0)
(44.1992 -1.96734e-06 0)
(44.1993 -3.32423e-06 0)
(44.1994 -5.43928e-06 0)
(44.1996 -8.63953e-06 0)
(44.1998 -1.34556e-05 0)
(44.2002 -2.05454e-05 0)
(44.2008 -3.08617e-05 0)
(44.2015 -4.56096e-05 0)
(44.2026 -6.64281e-05 0)
(44.204 -9.53787e-05 0)
(44.2061 -0.000135152 0)
(44.2088 -0.000189087 0)
(44.2124 -0.000261406 0)
(44.2172 -0.000357282 0)
(44.2235 -0.000483115 0)
(44.2316 -0.000646662 0)
(44.242 -0.000857404 0)
(44.2552 -0.00112678 0)
(44.2718 -0.00146867 0)
(44.2926 -0.00189989 0)
(44.3184 -0.00244097 0)
(44.3503 -0.00311682 0)
(44.3894 -0.00395912 0)
(44.4371 -0.00500566 0)
(44.4951 -0.00630783 0)
(44.5654 -0.00792629 0)
(44.6505 -0.00994773 0)
(44.7534 -0.012478 0)
(44.8778 -0.0156711 0)
(45.0285 -0.0197284 0)
(45.1757 -0.024089 0)
(45.312 -0.0281452 0)
(45.4635 -0.0328755 0)
(45.6318 -0.0383899 0)
(45.8187 -0.044852 0)
(46.0264 -0.0524407 0)
(46.2576 -0.0614054 0)
(46.5152 -0.0720406 0)
(46.8031 -0.0847476 0)
(47.1257 -0.100028 0)
(47.4885 -0.118565 0)
(47.8986 -0.141261 0)
(48.3647 -0.169367 0)
(48.8981 -0.204622 0)
(49.5139 -0.249542 0)
(50.232 -0.307836 0)
(51.0802 -0.385209 0)
(52.0983 -0.490791 0)
(53.3453 -0.640019 0)
(54.9137 -0.860775 0)
(56.9574 -1.2081 0)
(59.7542 -1.80429 0)
(63.8545 -2.97009 0)
(70.3861 -5.76411 0)
(80.1539 -14.709 0)
(44.1997 -3.90541e-07 0)
(44.1995 -3.66154e-07 0)
(44.1994 -2.8194e-07 0)
(44.1993 -2.14269e-07 0)
(44.1992 -6.02252e-08 0)
(44.1992 -1.20485e-07 0)
(44.1992 -3.98526e-09 0)
(44.1991 -1.58098e-07 0)
(44.1991 -4.58257e-08 0)
(44.199 -2.06327e-07 0)
(44.199 -5.96149e-08 0)
(44.199 -2.16562e-07 0)
(44.199 -5.37701e-08 0)
(44.1989 -2.09217e-07 0)
(44.1989 -4.84381e-08 0)
(44.1989 -1.93448e-07 0)
(44.1989 -3.59703e-08 0)
(44.1989 -1.592e-07 0)
(44.1989 -1.10502e-08 0)
(44.1989 -1.07659e-07 0)
(44.1989 2.8529e-08 0)
(44.1989 -3.87254e-08 0)
(44.1989 8.34749e-08 0)
(44.1989 4.61147e-08 0)
(44.1989 1.49501e-07 0)
(44.1989 1.29696e-07 0)
(44.199 1.95634e-07 0)
(44.199 1.5125e-07 0)
(44.199 1.26587e-07 0)
(44.199 -2.75657e-08 0)
(44.1991 -2.55191e-07 0)
(44.1991 -6.89264e-07 0)
(44.1991 -1.36247e-06 0)
(44.1992 -2.46165e-06 0)
(44.1993 -4.15834e-06 0)
(44.1994 -6.80321e-06 0)
(44.1996 -1.08055e-05 0)
(44.1998 -1.68285e-05 0)
(44.2002 -2.56948e-05 0)
(44.2008 -3.8596e-05 0)
(44.2015 -5.70395e-05 0)
(44.2026 -8.30743e-05 0)
(44.204 -0.000119279 0)
(44.2061 -0.000169018 0)
(44.2088 -0.000236467 0)
(44.2124 -0.000326907 0)
(44.2172 -0.000446805 0)
(44.2235 -0.000604165 0)
(44.2316 -0.00080869 0)
(44.242 -0.00107223 0)
(44.2552 -0.0014091 0)
(44.2718 -0.00183666 0)
(44.2926 -0.00237591 0)
(44.3184 -0.00305256 0)
(44.3503 -0.00389773 0)
(44.3893 -0.00495106 0)
(44.437 -0.00625979 0)
(44.495 -0.00788818 0)
(44.5653 -0.00991209 0)
(44.6504 -0.0124399 0)
(44.7533 -0.0156039 0)
(44.8776 -0.0195968 0)
(45.0283 -0.0246702 0)
(45.1755 -0.0301227 0)
(45.3118 -0.0351947 0)
(45.4632 -0.041109 0)
(45.6314 -0.0480038 0)
(45.8182 -0.0560829 0)
(46.0259 -0.0655705 0)
(46.2569 -0.0767774 0)
(46.5144 -0.0900724 0)
(46.802 -0.105955 0)
(47.1243 -0.125054 0)
(47.4868 -0.14822 0)
(47.8963 -0.176578 0)
(48.3617 -0.21169 0)
(48.8941 -0.255723 0)
(49.5084 -0.311808 0)
(50.2244 -0.38456 0)
(51.0695 -0.481065 0)
(52.0827 -0.61264 0)
(53.3215 -0.79836 0)
(54.8753 -1.07253 0)
(56.8904 -1.50234 0)
(59.623 -2.23501 0)
(63.5481 -3.64554 0)
(69.4689 -6.89 0)
(77.0007 -16.1867 0)
(44.1997 -4.80051e-07 0)
(44.1995 -4.49498e-07 0)
(44.1994 -3.45483e-07 0)
(44.1993 -2.63055e-07 0)
(44.1992 -7.25398e-08 0)
(44.1992 -1.50083e-07 0)
(44.1992 -3.65502e-09 0)
(44.1991 -1.97028e-07 0)
(44.1991 -5.48634e-08 0)
(44.199 -2.56318e-07 0)
(44.199 -7.18757e-08 0)
(44.199 -2.68965e-07 0)
(44.199 -6.51558e-08 0)
(44.1989 -2.5998e-07 0)
(44.1989 -5.82195e-08 0)
(44.1989 -2.40117e-07 0)
(44.1989 -4.31504e-08 0)
(44.1989 -1.97888e-07 0)
(44.1989 -1.25977e-08 0)
(44.1989 -1.33771e-07 0)
(44.1989 3.62649e-08 0)
(44.1989 -4.79429e-08 0)
(44.1989 1.04126e-07 0)
(44.1989 5.7033e-08 0)
(44.1989 1.85686e-07 0)
(44.1989 1.60381e-07 0)
(44.199 2.42424e-07 0)
(44.199 1.86707e-07 0)
(44.199 1.55861e-07 0)
(44.199 -3.60665e-08 0)
(44.1991 -3.18749e-07 0)
(44.1991 -8.58248e-07 0)
(44.1991 -1.69411e-06 0)
(44.1992 -3.05982e-06 0)
(44.1993 -5.16742e-06 0)
(44.1994 -8.45332e-06 0)
(44.1996 -1.34257e-05 0)
(44.1998 -2.09085e-05 0)
(44.2002 -3.19238e-05 0)
(44.2008 -4.79518e-05 0)
(44.2015 -7.08652e-05 0)
(44.2026 -0.00010321 0)
(44.204 -0.000148189 0)
(44.2061 -0.000209982 0)
(44.2088 -0.000293777 0)
(44.2124 -0.000406134 0)
(44.2172 -0.000555089 0)
(44.2235 -0.000750584 0)
(44.2316 -0.00100467 0)
(44.242 -0.00133208 0)
(44.2552 -0.00175058 0)
(44.2718 -0.00228175 0)
(44.2926 -0.00295168 0)
(44.3184 -0.00379229 0)
(44.3502 -0.00484226 0)
(44.3893 -0.00615081 0)
(44.437 -0.00777665 0)
(44.495 -0.00979957 0)
(44.5653 -0.0123138 0)
(44.6503 -0.015454 0)
(44.7531 -0.0193845 0)
(44.8775 -0.0243444 0)
(45.0281 -0.0306464 0)
(45.1752 -0.0374191 0)
(45.3114 -0.043719 0)
(45.4628 -0.0510644 0)
(45.6309 -0.0596278 0)
(45.8176 -0.069661 0)
(46.025 -0.081443 0)
(46.2558 -0.0953586 0)
(46.5131 -0.111866 0)
(46.8004 -0.131584 0)
(47.1222 -0.15529 0)
(47.4841 -0.18404 0)
(47.8928 -0.219227 0)
(48.3571 -0.26278 0)
(48.8881 -0.31738 0)
(49.5003 -0.38689 0)
(50.2131 -0.476997 0)
(51.0535 -0.596415 0)
(52.0593 -0.759017 0)
(53.2859 -0.988084 0)
(54.818 -1.3252 0)
(56.7911 -1.85089 0)
(59.4316 -2.73809 0)
(63.1176 -4.40993 0)
(68.3038 -8.06426 0)
(73.7378 -17.3576 0)
(44.1997 -5.8824e-07 0)
(44.1995 -5.50097e-07 0)
(44.1994 -4.22297e-07 0)
(44.1993 -3.21964e-07 0)
(44.1992 -8.74681e-08 0)
(44.1992 -1.85814e-07 0)
(44.1992 -3.26094e-09 0)
(44.1991 -2.44214e-07 0)
(44.1991 -6.57554e-08 0)
(44.199 -3.16859e-07 0)
(44.199 -8.67142e-08 0)
(44.199 -3.32343e-07 0)
(44.199 -7.88188e-08 0)
(44.1989 -3.21336e-07 0)
(44.1989 -6.99933e-08 0)
(44.1989 -2.96534e-07 0)
(44.1989 -5.17698e-08 0)
(44.1989 -2.44656e-07 0)
(44.1989 -1.44422e-08 0)
(44.1989 -1.65333e-07 0)
(44.1989 4.56094e-08 0)
(44.1989 -5.91331e-08 0)
(44.1989 1.29058e-07 0)
(44.1989 7.01713e-08 0)
(44.1989 2.29454e-07 0)
(44.1989 1.97316e-07 0)
(44.199 2.98858e-07 0)
(44.199 2.29327e-07 0)
(44.199 1.90955e-07 0)
(44.199 -4.67102e-08 0)
(44.1991 -3.96021e-07 0)
(44.1991 -1.06301e-06 0)
(44.1991 -2.09568e-06 0)
(44.1992 -3.78369e-06 0)
(44.1993 -6.38836e-06 0)
(44.1994 -1.04496e-05 0)
(44.1996 -1.65954e-05 0)
(44.1998 -2.58438e-05 0)
(44.2002 -3.94583e-05 0)
(44.2008 -5.92682e-05 0)
(44.2015 -8.75882e-05 0)