/*--------------------------------*- C++ -*----------------------------------*\
| =========                 |                                                 |
| \\      /  F ield         | OpenFOAM: The Open Source CFD Toolbox           |
|  \\    /   O peration     | Version:  v1912                                 |
|   \\  /    A nd           | Website:  www.openfoam.com                      |
|    \\/     M anipulation  |                                                 |
\*---------------------------------------------------------------------------*/
FoamFile
{
    version     2.0;
    format      ascii;
    class       volVectorField;
    location    "10000";
    object      U;
}
// * * * * * * * * * * * * * * * * * * * * * * * * * * * * * * * * * * * * * //

dimensions      [0 1 -1 0 0 0 0];


internalField   nonuniform List<vector> 
20540
(
(42.0819 -0.000200582 0)
(56.2751 0.00513847 0)
(42.0958 -0.000648261 0)
(56.248 0.0150968 0)
(42.1326 -0.00119016 0)
(56.1823 0.0235773 0)
(42.2048 -0.00182831 0)
(56.0688 0.0307808 0)
(42.3295 -0.00257653 0)
(55.8968 0.0374896 0)
(42.5278 -0.00344548 0)
(55.654 0.0440903 0)
(42.824 -0.00443777 0)
(55.328 0.0505209 0)
(43.2429 -0.00554578 0)
(54.907 0.0565646 0)
(43.8056 -0.00674776 0)
(54.3827 0.0619501 0)
(44.5259 -0.00800251 0)
(53.7531 0.0663482 0)
(45.4079 -0.00924547 0)
(53.0264 0.0693881 0)
(46.4413 -0.0103854 0)
(52.2251 0.070724 0)
(47.5884 -0.0112868 0)
(51.39 0.0701526 0)
(48.7495 -0.0117056 0)
(50.5802 0.067743 0)
(49.7271 -0.0111765 0)
(49.875 0.0636902 0)
(50.2278 -0.0099118 0)
(49.538 0.0590972 0)
(50.0669 -0.0102834 0)
(49.9332 0.0591938 0)
(49.9548 -0.0103083 0)
(50.0341 0.0587768 0)
(50.003 -0.00991125 0)
(49.9665 0.0575733 0)
(50.0041 -0.00969086 0)
(49.9719 0.0564166 0)
(50.0011 -0.0092716 0)
(49.976 0.0548204 0)
(50.0017 -0.00889268 0)
(49.9771 0.0530209 0)
(50.0019 -0.00838665 0)
(49.979 0.0508312 0)
(50.002 -0.00781408 0)
(49.9812 0.048227 0)
(50.0021 -0.00715359 0)
(49.9838 0.0451334 0)
(50.0023 -0.00639989 0)
(49.9866 0.0414619 0)
(50.0024 -0.00555414 0)
(49.9897 0.037115 0)
(50.0026 -0.00461692 0)
(49.9931 0.0319755 0)
(50.0027 -0.00360049 0)
(49.9964 0.0259037 0)
(50.0029 -0.00250365 0)
(49.9996 0.018701 0)
(50.003 -0.00143401 0)
(50.0018 0.0110834 0)
(50.003 -0.000465327 0)
(50.0028 0.00371185 0)
(50.003 0.000475978 0)
(50.0029 -0.00362584 0)
(50.003 0.00144563 0)
(50.0018 -0.0109995 0)
(50.0029 0.00249698 0)
(49.9996 -0.0185007 0)
(50.0027 0.00356036 0)
(49.9966 -0.025509 0)
(50.0026 0.00454854 0)
(49.9934 -0.0314538 0)
(50.0024 0.00546173 0)
(49.9902 -0.0365143 0)
(50.0023 0.00629022 0)
(49.9871 -0.0408196 0)
(50.0021 0.00703223 0)
(49.9843 -0.0444774 0)
(50.002 0.00768665 0)
(49.9818 -0.0475791 0)
(50.0019 0.00826205 0)
(49.9796 -0.0502072 0)
(50.0017 0.00875361 0)
(49.9777 -0.0524224 0)
(50.0015 0.0091895 0)
(49.9762 -0.0542946 0)
(50.0022 0.00950061 0)
(49.9744 -0.0558368 0)
(50.0052 0.00992905 0)
(49.9683 -0.0572674 0)
(49.984 0.00998246 0)
(49.9855 -0.0580759 0)
(49.9644 0.0105899 0)
(50.057 -0.0595286 0)
(50.1943 0.0098231 0)
(49.6945 -0.0584466 0)
(50.0565 0.0105412 0)
(49.6223 -0.0611612 0)
(49.3229 0.0115459 0)
(50.1744 -0.0656634 0)
(48.2764 0.0115561 0)
(50.9073 -0.0688885 0)
(47.1454 0.0109244 0)
(51.706 -0.0705312 0)
(46.0717 0.00995742 0)
(52.5062 -0.070395 0)
(45.1206 0.00881874 0)
(53.2596 -0.0685179 0)
(44.3158 0.00761227 0)
(53.9349 -0.065144 0)
(43.662 0.0064128 0)
(54.5161 -0.0606025 0)
(43.153 0.00527316 0)
(54.9988 -0.0552212 0)
(42.7746 0.00422623 0)
(55.3862 -0.0492824 0)
(42.5066 0.00328881 0)
(55.6867 -0.0430163 0)
(42.3266 0.00246613 0)
(55.9111 -0.0366022 0)
(42.2128 0.00175511 0)
(56.0707 -0.0300678 0)
(42.1463 0.00114597 0)
(56.1765 -0.0230203 0)
(42.1122 0.000626324 0)
(56.2379 -0.0147295 0)
(42.0992 0.000194332 0)
(56.2633 -0.00501463 0)
(6.47126 0.00622852 0)
(4.94228 1.12135e-05 0)
(4.53448 4.40482e-06 0)
(4.29398 3.41043e-06 0)
(4.13702 2.42728e-06 0)
(4.02628 1.85665e-06 0)
(3.94374 1.48558e-06 0)
(3.87848 1.22699e-06 0)
(3.82612 1.02512e-06 0)
(3.78331 8.82919e-07 0)
(3.74729 7.77177e-07 0)
(3.71661 6.87839e-07 0)
(3.69031 6.15568e-07 0)
(3.66745 5.59749e-07 0)
(3.64733 5.13395e-07 0)
(3.6295 4.7184e-07 0)
(3.61369 4.35097e-07 0)
(3.59959 4.04099e-07 0)
(3.58695 3.78448e-07 0)
(3.57552 3.56526e-07 0)
(3.56514 3.36851e-07 0)
(3.55569 3.18624e-07 0)
(3.54707 3.017e-07 0)
(3.53921 2.86315e-07 0)
(3.53202 2.72646e-07 0)
(3.52542 2.6063e-07 0)
(3.51935 2.50034e-07 0)
(3.51374 2.40632e-07 0)
(3.50855 2.32128e-07 0)
(3.50373 2.24244e-07 0)
(3.49925 2.16797e-07 0)
(3.49509 2.09671e-07 0)
(3.49121 2.028e-07 0)
(3.48761 1.96132e-07 0)
(3.48425 1.89609e-07 0)
(3.48113 1.83129e-07 0)
(3.47823 1.76533e-07 0)
(3.47553 1.69615e-07 0)
(3.47303 1.621e-07 0)
(3.47073 1.53649e-07 0)
(3.46861 1.43812e-07 0)
(3.46667 1.32059e-07 0)
(3.46493 1.17672e-07 0)
(3.46339 1.00202e-07 0)
(3.46207 7.59179e-08 0)
(3.46098 4.93551e-08 0)
(3.46014 4.68708e-08 0)
(3.45948 -1.51339e-07 0)
(3.45903 -9.88453e-08 0)
(3.45926 -1.95133e-07 0)
(3.45976 -9.21782e-07 0)
(3.46053 -4.87495e-07 0)
(3.46215 3.79354e-07 0)
(3.46449 -9.41545e-08 0)
(3.46736 -8.06588e-07 0)
(3.47089 -1.06639e-06 0)
(3.47527 -1.34583e-06 0)
(3.48056 -1.61627e-06 0)
(3.48695 -1.92211e-06 0)
(3.49449 -2.33938e-06 0)
(3.50342 -2.89533e-06 0)
(3.51376 -3.3611e-06 0)
(3.52585 -4.12509e-06 0)
(3.53734 -5.3528e-06 0)
(3.5473 -5.88073e-06 0)
(3.55796 -6.75792e-06 0)
(3.56936 -7.70603e-06 0)
(3.58148 -8.69968e-06 0)
(3.5943 -9.85568e-06 0)
(3.60784 -1.10941e-05 0)
(3.62214 -1.25985e-05 0)
(3.63713 -1.4092e-05 0)
(3.65301 -1.61527e-05 0)
(3.66949 -1.78478e-05 0)
(3.68717 -2.09809e-05 0)
(3.70517 -2.25205e-05 0)
(3.72508 -2.80923e-05 0)
(3.74461 -2.81633e-05 0)
(3.76763 -3.99315e-05 0)
(3.78867 -3.45812e-05 0)
(3.81651 -6.30572e-05 0)
(3.83974 -4.16618e-05 0)
(3.87486 -0.000114493 0)
(3.90571 -6.86927e-05 0)
(3.94831 -0.000240692 0)
(4.03094 -0.000321916 0)
(4.04918 -0.00175012 0)
(4.08757 -0.0248317 0)
(18.9514 0.0187582 0)
(15.1929 0.000971005 0)
(14.0173 0.00035472 0)
(13.3224 0.000226986 0)
(12.865 0.000158501 0)
(12.5406 0.000118624 0)
(12.2981 9.40041e-05 0)
(12.106 7.75181e-05 0)
(11.9514 6.50031e-05 0)
(11.8248 5.58435e-05 0)
(11.7181 4.90061e-05 0)
(11.6271 4.3406e-05 0)
(11.549 3.88394e-05 0)
(11.4811 3.52318e-05 0)
(11.4213 3.22671e-05 0)
(11.3682 2.9666e-05 0)
(11.3211 2.73583e-05 0)
(11.2791 2.53728e-05 0)
(11.2415 2.37037e-05 0)
(11.2074 2.22817e-05 0)
(11.1764 2.10218e-05 0)
(11.1482 1.98673e-05 0)
(11.1225 1.87979e-05 0)
(11.099 1.78161e-05 0)
(11.0775 1.69303e-05 0)
(11.0578 1.61419e-05 0)
(11.0396 1.54413e-05 0)
(11.0228 1.48162e-05 0)
(11.0073 1.4251e-05 0)
(10.9929 1.37305e-05 0)
(10.9795 1.32428e-05 0)
(10.967 1.27798e-05 0)
(10.9554 1.23366e-05 0)
(10.9446 1.19101e-05 0)
(10.9346 1.14975e-05 0)
(10.9252 1.10955e-05 0)
(10.9165 1.06987e-05 0)
(10.9084 1.02998e-05 0)
(10.9009 9.8887e-06 0)
(10.894 9.45316e-06 0)
(10.8876 8.97663e-06 0)
(10.8818 8.4402e-06 0)
(10.8765 7.81906e-06 0)
(10.8718 7.08692e-06 0)
(10.8678 6.20111e-06 0)
(10.8644 5.13689e-06 0)
(10.8618 4.00357e-06 0)
(10.8596 2.06897e-06 0)
(10.8583 -8.26042e-08 0)
(10.8587 -2.55778e-06 0)
(10.8599 -6.14557e-06 0)
(10.8622 -8.4287e-06 0)
(10.8666 -1.09281e-05 0)
(10.8728 -1.62874e-05 0)
(10.8805 -2.31366e-05 0)
(10.8903 -3.05513e-05 0)
(10.9026 -3.89037e-05 0)
(10.9174 -4.86481e-05 0)
(10.9353 -6.00967e-05 0)
(10.9564 -7.37096e-05 0)
(10.9815 -8.97007e-05 0)
(11.0105 -0.000108034 0)
(11.0442 -0.0001302 0)
(11.0761 -0.000153339 0)
(11.104 -0.000172025 0)
(11.1339 -0.000192626 0)
(11.1657 -0.000215687 0)
(11.1995 -0.000240548 0)
(11.2351 -0.000267598 0)
(11.2727 -0.000297107 0)
(11.3124 -0.000329283 0)
(11.3539 -0.000364614 0)
(11.3977 -0.00040318 0)
(11.4431 -0.000445963 0)
(11.4916 -0.000493384 0)
(11.5409 -0.000545732 0)
(11.5951 -0.000607236 0)
(11.6481 -0.000671703 0)
(11.7102 -0.000760986 0)
(11.7666 -0.000835877 0)
(11.8404 -0.00100415 0)
(11.9018 -0.00105748 0)
(11.9917 -0.00148755 0)
(12.0717 -0.00140173 0)
(12.1702 -0.00294054 0)
(12.3715 -0.00263614 0)
(12.3513 -0.0049839 0)
(13.2861 -0.165263 0)
(27.8508 0.0309065 0)
(23.2945 0.0030981 0)
(21.8344 0.00118545 0)
(20.9737 0.000762381 0)
(20.4008 0.000539244 0)
(19.9903 0.000407412 0)
(19.681 0.000325258 0)
(19.4341 0.000269847 0)
(19.2344 0.00022746 0)
(19.07 0.000196189 0)
(18.9308 0.000172735 0)
(18.8118 0.000153453 0)
(18.7093 0.000137652 0)
(18.6199 0.000125121 0)
(18.541 0.000114803 0)
(18.4708 0.00010573 0)
(18.4085 9.76532e-05 0)
(18.3528 9.06811e-05 0)
(18.3027 8.48056e-05 0)
(18.2574 7.97945e-05 0)
(18.2161 7.53508e-05 0)
(18.1785 7.12739e-05 0)
(18.1442 6.74904e-05 0)
(18.1128 6.40098e-05 0)
(18.0841 6.08625e-05 0)
(18.0578 5.80567e-05 0)
(18.0335 5.55605e-05 0)
(18.0111 5.33311e-05 0)
(17.9903 5.13142e-05 0)
(17.971 4.94558e-05 0)
(17.9531 4.77134e-05 0)
(17.9364 4.60585e-05 0)
(17.9209 4.44732e-05 0)
(17.9064 4.29466e-05 0)
(17.893 4.14689e-05 0)
(17.8805 4.0029e-05 0)
(17.8689 3.86079e-05 0)
(17.8581 3.71812e-05 0)
(17.848 3.57132e-05 0)
(17.8388 3.41617e-05 0)
(17.8303 3.24692e-05 0)
(17.8225 3.057e-05 0)
(17.8155 2.83778e-05 0)
(17.8093 2.58003e-05 0)
(17.8039 2.26963e-05 0)
(17.7994 1.89836e-05 0)
(17.7959 1.43763e-05 0)
(17.7934 7.88146e-06 0)
(17.7924 1.39008e-06 0)
(17.7926 -6.85866e-06 0)
(17.7944 -1.79306e-05 0)
(17.7979 -2.74008e-05 0)
(17.8034 -3.93753e-05 0)
(17.8109 -5.7739e-05 0)
(17.821 -7.97685e-05 0)
(17.8339 -0.000104576 0)
(17.8501 -0.000133185 0)
(17.8697 -0.000166921 0)
(17.8933 -0.000206481 0)
(17.9212 -0.000253253 0)
(17.9543 -0.000307703 0)
(17.9924 -0.0003714 0)
(18.0376 -0.0004476 0)
(18.0811 -0.000523106 0)
(18.1185 -0.000585962 0)
(18.1579 -0.000654062 0)
(18.1997 -0.000730311 0)
(18.244 -0.000812722 0)
(18.2908 -0.000901706 0)
(18.34 -0.000998618 0)
(18.3917 -0.00110302 0)
(18.4458 -0.00121825 0)
(18.5028 -0.00134103 0)
(18.5617 -0.00148017 0)
(18.6244 -0.00162658 0)
(18.688 -0.00179825 0)
(18.7578 -0.00197822 0)
(18.8257 -0.00219655 0)
(18.9049 -0.00243679 0)
(18.9768 -0.00270993 0)
(19.0697 -0.00313391 0)
(19.1476 -0.00338003 0)
(19.2577 -0.00449499 0)
(19.3593 -0.00419009 0)
(19.47 -0.00876023 0)
(19.7208 -0.0050025 0)
(19.6454 -0.0267426 0)
(20.9753 -0.201861 0)
(32.9764 0.0418361 0)
(27.9077 0.00581705 0)
(26.2555 0.00229167 0)
(25.318 0.00146026 0)
(24.703 0.0010334 0)
(24.2664 0.000781715 0)
(23.9391 0.000624895 0)
(23.6793 0.00051911 0)
(23.4697 0.000438201 0)
(23.2976 0.000378345 0)
(23.1523 0.000333425 0)
(23.0282 0.000296523 0)
(22.9215 0.00026623 0)
(22.8285 0.000242156 0)
(22.7465 0.000222338 0)
(22.6737 0.000204923 0)
(22.609 0.000189407 0)
(22.5512 0.000175987 0)
(22.4993 0.00016466 0)
(22.4524 0.000154996 0)
(22.4097 0.000146431 0)
(22.3707 0.000138577 0)
(22.3352 0.000131285 0)
(22.3028 0.000124571 0)
(22.2731 0.000118492 0)
(22.2458 0.000113066 0)
(22.2207 0.000108235 0)
(22.1975 0.000103919 0)
(22.176 0.000100015 0)
(22.1561 9.64198e-05 0)
(22.1376 9.305e-05 0)
(22.1203 8.98503e-05 0)
(22.1043 8.67853e-05 0)
(22.0894 8.38332e-05 0)
(22.0755 8.09748e-05 0)
(22.0625 7.81884e-05 0)
(22.0505 7.54378e-05 0)
(22.0393 7.26758e-05 0)
(22.029 6.98338e-05 0)
(22.0194 6.68304e-05 0)
(22.0106 6.35547e-05 0)
(22.0026 5.98799e-05 0)
(21.9954 5.56395e-05 0)
(21.989 5.06543e-05 0)
(21.9834 4.46569e-05 0)
(21.9788 3.74923e-05 0)
(21.9752 2.88915e-05 0)
(21.9728 1.76169e-05 0)
(21.9718 4.49904e-06 0)
(21.972 -1.15412e-05 0)
(21.9739 -3.12474e-05 0)
(21.9776 -5.2686e-05 0)
(21.9832 -7.93845e-05 0)
(21.991 -0.000113377 0)
(22.0014 -0.00015367 0)
(22.0149 -0.000201029 0)
(22.0316 -0.000256032 0)
(22.052 -0.000321066 0)
(22.0765 -0.000397313 0)
(22.1054 -0.000487354 0)
(22.1397 -0.000591811 0)
(22.1792 -0.000714241 0)
(22.2261 -0.000858249 0)
(22.2712 -0.000999578 0)
(22.31 -0.00112183 0)
(22.3508 -0.00125281 0)
(22.3942 -0.00139768 0)
(22.4401 -0.0015544 0)
(22.4885 -0.00172298 0)
(22.5394 -0.00190668 0)
(22.593 -0.0021034 0)
(22.6489 -0.00232142 0)
(22.7079 -0.00255106 0)
(22.7688 -0.00281436 0)
(22.8338 -0.00308466 0)
(22.8994 -0.00341122 0)
(22.9716 -0.00373572 0)
(23.0417 -0.00415638 0)
(23.1234 -0.00457435 0)
(23.1977 -0.00511211 0)
(23.2928 -0.0058291 0)
(23.374 -0.00633737 0)
(23.4843 -0.00827446 0)
(23.5933 -0.0076318 0)
(23.6941 -0.0159981 0)
(23.9649 -0.00721156 0)
(23.8629 -0.0555998 0)
(25.0682 -0.203928 0)
(36.3697 0.0536217 0)
(30.8637 0.00917321 0)
(28.9921 0.00365611 0)
(27.9608 0.00229877 0)
(27.2937 0.00161989 0)
(26.8245 0.00122261 0)
(26.4751 0.000975928 0)
(26.1992 0.00080991 0)
(25.9775 0.00068336 0)
(25.7961 0.000589699 0)
(25.6435 0.000519466 0)
(25.5133 0.000461919 0)
(25.4016 0.000414679 0)
(25.3044 0.000377099 0)
(25.2189 0.000346194 0)
(25.143 0.00031909 0)
(25.0757 0.000294953 0)
(25.0155 0.000274059 0)
(24.9616 0.000256406 0)
(24.9128 0.000241345 0)
(24.8685 0.000228012 0)
(24.8281 0.000215799 0)
(24.7913 0.000204467 0)
(24.7576 0.000194031 0)
(24.7268 0.000184575 0)
(24.6986 0.000176129 0)
(24.6726 0.000168606 0)
(24.6485 0.000161883 0)
(24.6263 0.000155803 0)
(24.6056 0.000150207 0)
(24.5864 0.000144966 0)
(24.5686 0.000139993 0)
(24.552 0.00013523 0)
(24.5365 0.000130643 0)
(24.5221 0.000126202 0)
(24.5087 0.000121872 0)
(24.4963 0.000117598 0)
(24.4847 0.000113305 0)
(24.474 0.000108888 0)
(24.4641 0.000104222 0)
(24.4549 9.91342e-05 0)
(24.4466 9.34289e-05 0)
(24.4391 8.68483e-05 0)
(24.4324 7.91148e-05 0)
(24.4266 6.98178e-05 0)
(24.4218 5.87195e-05 0)
(24.418 4.52855e-05 0)
(24.4154 2.80888e-05 0)
(24.4143 7.87642e-06 0)
(24.4144 -1.65568e-05 0)
(24.4162 -4.65431e-05 0)
(24.4199 -8.13839e-05 0)
(24.4256 -0.000124038 0)
(24.4335 -0.000175877 0)
(24.4442 -0.000237386 0)
(24.4579 -0.000310493 0)
(24.475 -0.000395614 0)
(24.4958 -0.000496366 0)
(24.5208 -0.00061433 0)
(24.5504 -0.000753638 0)
(24.5854 -0.000914945 0)
(24.6259 -0.00110465 0)
(24.6735 -0.00132696 0)
(24.7192 -0.00154429 0)
(24.7587 -0.00173408 0)
(24.8004 -0.00193585 0)
(24.8447 -0.00215891 0)
(24.8915 -0.00240059 0)
(24.941 -0.00266006 0)
(24.993 -0.00294307 0)
(25.0478 -0.00324511 0)
(25.1049 -0.00358089 0)
(25.1652 -0.00393226 0)
(25.2273 -0.00433803 0)
(25.2937 -0.00474891 0)
(25.3606 -0.00525374 0)
(25.4343 -0.00574111 0)
(25.5057 -0.00639488 0)
(25.589 -0.00701175 0)
(25.6647 -0.00785432 0)
(25.7611 -0.00889318 0)
(25.8441 -0.00970999 0)
(25.9546 -0.0125312 0)
(26.0654 -0.0115999 0)
(26.1672 -0.0236981 0)
(26.4204 -0.0115889 0)
(26.3863 -0.0779129 0)
(27.2092 -0.203891 0)
(39.0073 0.0668895 0)
(33.1786 0.0136658 0)
(31.0825 0.00552319 0)
(29.9475 0.00342273 0)
(29.2207 0.00239655 0)
(28.7132 0.00180151 0)
(28.3369 0.00143378 0)
(28.0414 0.00118715 0)
(27.8045 0.00100013 0)
(27.6112 0.000861793 0)
(27.449 0.000758216 0)
(27.3109 0.000673677 0)
(27.1925 0.000604344 0)
(27.0898 0.000549157 0)
(26.9994 0.000503843 0)
(26.9193 0.000464215 0)
(26.8482 0.000428975 0)
(26.7849 0.00039846 0)
(26.7281 0.000372657 0)
(26.6767 0.000350648 0)
(26.6301 0.000331193 0)
(26.5876 0.000313405 0)
(26.5489 0.000296921 0)
(26.5135 0.000281742 0)
(26.4812 0.000267985 0)
(26.4515 0.000255689 0)
(26.4242 0.000244731 0)
(26.399 0.000234939 0)
(26.3756 0.000226087 0)
(26.3539 0.000217946 0)
(26.3338 0.000210329 0)
(26.3151 0.000203108 0)
(26.2976 0.000196197 0)
(26.2814 0.000189545 0)
(26.2663 0.000183105 0)
(26.2522 0.000176827 0)
(26.2392 0.00017063 0)
(26.227 0.000164408 0)
(26.2157 0.000158009 0)
(26.2053 0.000151251 0)
(26.1957 0.000143887 0)
(26.1869 0.000135635 0)
(26.179 0.000126124 0)
(26.172 0.000114953 0)
(26.1658 0.000101535 0)
(26.1607 8.55255e-05 0)
(26.1566 6.59434e-05 0)
(26.1538 4.1187e-05 0)
(26.1524 1.21702e-05 0)
(26.1524 -2.27481e-05 0)
(26.1541 -6.55134e-05 0)
(26.1577 -0.000116561 0)
(26.1635 -0.000178705 0)
(26.1716 -0.000252924 0)
(26.1825 -0.00034111 0)
(26.1965 -0.00044636 0)
(26.2139 -0.00056903 0)
(26.2351 -0.000714304 0)
(26.2607 -0.0008842 0)
(26.291 -0.00108489 0)
(26.3269 -0.00131699 0)
(26.3683 -0.00159062 0)
(26.417 -0.00191082 0)
(26.4635 -0.00222352 0)
(26.5039 -0.00249768 0)
(26.5466 -0.00278721 0)
(26.5919 -0.00310767 0)
(26.6398 -0.00345542 0)
(26.6905 -0.00382823 0)
(26.7437 -0.00423533 0)
(26.7997 -0.00466864 0)
(26.8581 -0.00515158 0)
(26.9197 -0.0056545 0)
(26.9831 -0.00623834 0)
(27.051 -0.00682376 0)
(27.1193 -0.00755143 0)
(27.1945 -0.00824021 0)
(27.2673 -0.0091845 0)
(27.3521 -0.0100468 0)
(27.4292 -0.0112676 0)
(27.5269 -0.0126941 0)
(27.6109 -0.013908 0)
(27.7233 -0.0177401 0)
(27.8309 -0.0166594 0)
(27.945 -0.0325379 0)
(28.1541 -0.0186121 0)
(28.2354 -0.0966156 0)
(28.6665 -0.214689 0)
(41.2563 0.0814672 0)
(35.2211 0.0195277 0)
(32.9009 0.00805803 0)
(31.6543 0.00493179 0)
(30.8623 0.00343133 0)
(30.3123 0.00256871 0)
(29.9063 0.00203791 0)
(29.5887 0.00168315 0)
(29.3348 0.00141558 0)
(29.128 0.00121782 0)
(28.9549 0.00106996 0)
(28.8079 0.000949762 0)
(28.682 0.000851303 0)
(28.5728 0.000772894 0)
(28.4769 0.000708607 0)
(28.3921 0.000652557 0)
(28.3168 0.000602798 0)
(28.2497 0.000559704 0)
(28.1896 0.000523237 0)
(28.1353 0.000492138 0)
(28.0861 0.00046469 0)
(28.0412 0.000439642 0)
(28.0004 0.000416461 0)
(27.963 0.000395125 0)
(27.9289 0.000375782 0)
(27.8976 0.000358485 0)
(27.8688 0.000343064 0)
(27.8422 0.000329281 0)
(27.8175 0.000316827 0)
(27.7947 0.000305384 0)
(27.7735 0.000294689 0)
(27.7537 0.000284559 0)
(27.7354 0.000274873 0)
(27.7183 0.000265555 0)
(27.7024 0.000256538 0)
(27.6875 0.000247751 0)
(27.6738 0.000239081 0)
(27.661 0.00023038 0)
(27.6491 0.000221437 0)
(27.6381 0.000212 0)
(27.6279 0.000201728 0)
(27.6187 0.000190229 0)
(27.6103 0.000176988 0)
(27.6028 0.000161452 0)
(27.5963 0.000142806 0)
(27.5908 0.00012057 0)
(27.5864 9.32331e-05 0)
(27.5834 5.89278e-05 0)
(27.5817 1.87441e-05 0)
(27.5815 -2.95039e-05 0)
(27.5831 -8.84928e-05 0)
(27.5866 -0.000159761 0)
(27.5923 -0.000246286 0)
(27.6005 -0.000348959 0)
(27.6116 -0.000470893 0)
(27.6257 -0.000616598 0)
(27.6435 -0.000786626 0)
(27.6651 -0.000988029 0)
(27.6912 -0.00122333 0)
(27.722 -0.00150134 0)
(27.7586 -0.00182258 0)
(27.801 -0.00220161 0)
(27.8506 -0.00264426 0)
(27.8979 -0.00307675 0)
(27.9391 -0.00345753 0)
(27.9827 -0.00385732 0)
(28.029 -0.00429969 0)
(28.0779 -0.00478037 0)
(28.1296 -0.00529507 0)
(28.1838 -0.00585754 0)
(28.241 -0.00645483 0)
(28.3004 -0.00712167 0)
(28.3633 -0.00781344 0)
(28.4278 -0.00861924 0)
(28.4969 -0.00942145 0)
(28.5663 -0.0104258 0)
(28.6428 -0.0113641 0)
(28.7167 -0.0126667 0)
(28.8027 -0.0138312 0)
(28.8809 -0.0155185 0)
(28.9798 -0.0174018 0)
(29.0637 -0.0191446 0)
(29.1792 -0.0240457 0)
(29.2798 -0.0232116 0)
(29.4125 -0.0422845 0)
(29.5682 -0.0293583 0)
(29.7597 -0.111925 0)
(29.9134 -0.233478 0)
(43.2648 0.0971883 0)
(37.1442 0.0269688 0)
(34.6032 0.011442 0)
(33.2365 0.00693687 0)
(32.3728 0.00479814 0)
(31.7758 0.0035776 0)
(31.3366 0.00282933 0)
(30.9944 0.0023308 0)
(30.7216 0.00195682 0)
(30.4998 0.00168066 0)
(30.3146 0.00147441 0)
(30.1576 0.00130742 0)
(30.0233 0.00117083 0)
(29.907 0.00106201 0)
(29.805 0.000972906 0)
(29.7148 0.000895455 0)
(29.6349 0.000826828 0)
(29.5637 0.000767398 0)
(29.5 0.000717073 0)
(29.4425 0.00067416 0)
(29.3903 0.000636337 0)
(29.3429 0.00060189 0)
(29.2996 0.000570057 0)
(29.2601 0.000540777 0)
(29.224 0.000514229 0)
(29.1909 0.000490476 0)
(29.1605 0.000469293 0)
(29.1324 0.000450358 0)
(29.1064 0.000433255 0)
(29.0822 0.000417552 0)
(29.0598 0.000402892 0)
(29.039 0.000389021 0)
(29.0196 0.000375771 0)
(29.0015 0.000363033 0)
(28.9847 0.000350716 0)
(28.9691 0.00033872 0)
(28.9546 0.00032689 0)
(28.941 0.000315029 0)
(28.9285 0.000302849 0)
(28.9168 0.000290012 0)
(28.9061 0.00027606 0)
(28.8963 0.000260462 0)
(28.8874 0.000242528 0)
(28.8795 0.00022151 0)
(28.8725 0.000196316 0)
(28.8667 0.000166281 0)
(28.862 0.000129311 0)
(28.8585 8.31492e-05 0)
(28.8566 2.89988e-05 0)
(28.8562 -3.596e-05 0)
(28.8576 -0.000115257 0)
(28.8609 -0.000211553 0)
(28.8666 -0.000328274 0)
(28.8748 -0.000466517 0)
(28.8859 -0.000630477 0)
(28.9002 -0.000826402 0)
(28.9181 -0.0010553 0)
(28.94 -0.00132646 0)
(28.9664 -0.00164296 0)
(28.9977 -0.00201696 0)
(29.0349 -0.00244883 0)
(29.0779 -0.00295844 0)
(29.1283 -0.00355229 0)
(29.1763 -0.00413291 0)
(29.2182 -0.00464616 0)
(29.2624 -0.00518264 0)
(29.3094 -0.00577544 0)
(29.3591 -0.00642019 0)
(29.4116 -0.00710989 0)
(29.4666 -0.0078639 0)
(29.5246 -0.00866308 0)
(29.5849 -0.00955608 0)
(29.6487 -0.0104799 0)
(29.7141 -0.0115578 0)
(29.784 -0.0126258 0)
(29.8543 -0.0139677 0)
(29.9316 -0.0152113 0)
(30.0064 -0.0169482 0)
(30.0931 -0.0184793 0)
(30.1719 -0.0207362 0)
(30.2718 -0.0231397 0)
(30.3548 -0.0255992 0)
(30.4739 -0.0315281 0)
(30.5656 -0.0316037 0)
(30.7175 -0.0528098 0)
(30.8248 -0.0441649 0)
(31.0921 -0.125454 0)
(31.096 -0.254308 0)
(45.0891 0.113852 0)
(39.0187 0.0362281 0)
(36.266 0.0159126 0)
(34.7695 0.00959046 0)
(33.8265 0.00659941 0)
(33.1767 0.00490225 0)
(32.7001 0.00386476 0)
(32.3301 0.00317543 0)
(32.0358 0.00266109 0)
(31.797 0.0022816 0)
(31.5981 0.00199843 0)
(31.4297 0.00177006 0)
(31.2859 0.0015836 0)
(31.1616 0.00143498 0)
(31.0527 0.00131343 0)
(30.9566 0.0012081 0)
(30.8714 0.00111497 0)
(30.7957 0.00103435 0)
(30.7278 0.000966041 0)
(30.6667 0.000907789 0)
(30.6113 0.000856514 0)
(30.5609 0.000809908 0)
(30.515 0.000766912 0)
(30.4731 0.000727396 0)
(30.4349 0.00069157 0)
(30.3998 0.000659504 0)
(30.3675 0.000630898 0)
(30.3377 0.000605321 0)
(30.3101 0.000582226 0)
(30.2846 0.000561039 0)
(30.2609 0.000541279 0)
(30.2388 0.000522605 0)
(30.2183 0.000504787 0)
(30.1992 0.000487673 0)
(30.1814 0.00047114 0)
(30.1649 0.00045505 0)
(30.1495 0.000439199 0)
(30.1351 0.000423322 0)
(30.1218 0.000407043 0)
(30.1095 0.000389913 0)
(30.0982 0.000371329 0)
(30.0878 0.000350592 0)
(30.0783 0.000326792 0)
(30.0698 0.000298943 0)
(30.0624 0.000265612 0)
(30.0561 0.000225888 0)
(30.051 0.000177047 0)
(30.0472 0.000116292 0)
(30.0449 4.48267e-05 0)
(30.0442 -4.08593e-05 0)
(30.0453 -0.000145286 0)
(30.0485 -0.000272335 0)
(30.054 -0.000426139 0)
(30.0621 -0.000608315 0)
(30.0731 -0.000824094 0)
(30.0874 -0.0010818 0)
(30.1054 -0.00138317 0)
(30.1274 -0.00174014 0)
(30.1541 -0.00215649 0)
(30.1856 -0.00264845 0)
(30.2232 -0.0032163 0)
(30.2666 -0.00388618 0)
(30.3175 -0.00466532 0)
(30.366 -0.00542741 0)
(30.4083 -0.00610326 0)
(30.4531 -0.00680769 0)
(30.5006 -0.00758445 0)
(30.5508 -0.00842978 0)
(30.6038 -0.00933333 0)
(30.6594 -0.0103212 0)
(30.7179 -0.0113668 0)
(30.7788 -0.0125352 0)
(30.8431 -0.0137418 0)
(30.909 -0.0151499 0)
(30.9795 -0.0165415 0)
(31.0504 -0.0182907 0)
(31.1281 -0.0199058 0)
(31.2033 -0.0221642 0)
(31.2904 -0.0241359 0)
(31.3694 -0.0270859 0)
(31.4699 -0.0300691 0)
(31.5515 -0.0334929 0)
(31.6738 -0.0403383 0)
(31.7567 -0.0421447 0)
(31.9235 -0.0643784 0)
(31.9962 -0.062665 0)
(32.2981 -0.139646 0)
(32.2427 -0.273416 0)
(46.7391 0.131082 0)
(40.8772 0.0475403 0)
(37.9322 0.0217716 0)
(36.2973 0.0131003 0)
(35.266 0.00897748 0)
(34.5566 0.00664645 0)
(34.0374 0.00522411 0)
(33.6355 0.00428106 0)
(33.3165 0.00358106 0)
(33.0581 0.00306496 0)
(32.8434 0.00268007 0)
(32.6619 0.00237083 0)
(32.5072 0.00211885 0)
(32.3735 0.00191792 0)
(32.2567 0.00175375 0)
(32.1537 0.00161192 0)
(32.0625 0.00148683 0)
(31.9815 0.00137861 0)
(31.909 0.00128685 0)
(31.8437 0.0012086 0)
(31.7845 0.0011398 0)
(31.7308 0.00107739 0)
(31.6819 0.00101993 0)
(31.6373 0.000967178 0)
(31.5965 0.000919363 0)
(31.5591 0.000876553 0)
(31.5247 0.000838348 0)
(31.4931 0.000804181 0)
(31.4637 0.000773336 0)
(31.4366 0.000745058 0)
(31.4114 0.000718716 0)
(31.3879 0.000693854 0)
(31.3661 0.000670161 0)
(31.3458 0.000647432 0)
(31.3269 0.000625497 0)
(31.3093 0.000604175 0)
(31.293 0.000583194 0)
(31.2777 0.000562211 0)
(31.2636 0.000540736 0)
(31.2505 0.000518184 0)
(31.2384 0.000493774 0)
(31.2273 0.000466599 0)
(31.2172 0.00043548 0)
(31.2081 0.00039914 0)
(31.2001 0.000355731 0)
(31.1933 0.000304011 0)
(31.1877 0.000240586 0)
(31.1834 0.00016194 0)
(31.1807 6.91197e-05 0)
(31.1796 -4.21392e-05 0)
(31.1804 -0.000177488 0)
(31.1833 -0.000342168 0)
(31.1886 -0.000541301 0)
(31.1964 -0.000777393 0)
(31.2073 -0.00105673 0)
(31.2215 -0.00139006 0)
(31.2394 -0.00178018 0)
(31.2613 -0.00224216 0)
(31.2881 -0.00278064 0)
(31.3197 -0.0034168 0)
(31.3574 -0.00415088 0)
(31.401 -0.00501647 0)
(31.4522 -0.00602169 0)
(31.5009 -0.00700497 0)
(31.5434 -0.00787903 0)
(31.5884 -0.00878875 0)
(31.6362 -0.00978938 0)
(31.6867 -0.0108787 0)
(31.74 -0.0120422 0)
(31.7958 -0.0133142 0)
(31.8547 -0.0146589 0)
(31.9158 -0.016161 0)
(31.9803 -0.0177107 0)
(32.0465 -0.0195173 0)
(32.1172 -0.0213014 0)
(32.1883 -0.0235393 0)
(32.2661 -0.0256047 0)
(32.3414 -0.0284862 0)
(32.4285 -0.0309853 0)
(32.5072 -0.0347742 0)
(32.6079 -0.0384038 0)
(32.688 -0.0430813 0)
(32.8121 -0.050732 0)
(32.8884 -0.055076 0)
(33.0628 -0.0775691 0)
(33.1165 -0.0842795 0)
(33.4203 -0.156208 0)
(33.3524 -0.290485 0)
(48.1938 0.148246 0)
(42.7286 0.0610567 0)
(39.628 0.0293781 0)
(37.8487 0.0177386 0)
(36.7202 0.012124 0)
(35.9437 0.00895161 0)
(35.3758 0.00701692 0)
(34.9372 0.00573581 0)
(34.5896 0.00478943 0)
(34.3084 0.00409206 0)
(34.0751 0.00357197 0)
(33.8784 0.00315564 0)
(33.7108 0.00281711 0)
(33.5663 0.00254702 0)
(33.4401 0.00232649 0)
(33.329 0.00213656 0)
(33.2308 0.00196954 0)
(33.1436 0.00182514 0)
(33.0656 0.00170263 0)
(32.9954 0.00159811 0)
(32.9319 0.00150633 0)
(32.8742 0.00142325 0)
(32.8218 0.00134693 0)
(32.7739 0.00127696 0)
(32.7302 0.00121356 0)
(32.6902 0.00115678 0)
(32.6534 0.00110609 0)
(32.6195 0.00106075 0)
(32.5881 0.00101981 0)
(32.559 0.000982314 0)
(32.5321 0.000947423 0)
(32.507 0.000914538 0)
(32.4837 0.000883247 0)
(32.462 0.000853273 0)
(32.4418 0.000824385 0)
(32.423 0.000796342 0)
(32.4055 0.000768794 0)
(32.3892 0.000741292 0)
(32.3741 0.000713207 0)
(32.36 0.00068379 0)
(32.3471 0.000652039 0)
(32.3351 0.000616793 0)
(32.3243 0.000576543 0)
(32.3145 0.000529654 0)
(32.3058 0.000473779 0)
(32.2984 0.000407239 0)
(32.2922 0.000325919 0)
(32.2874 0.000225396 0)
(32.2841 0.000106338 0)
(32.2826 -3.63451e-05 0)
(32.2829 -0.000209595 0)
(32.2854 -0.000420194 0)
(32.2903 -0.000674544 0)
(32.2978 -0.000976486 0)
(32.3084 -0.00133346 0)
(32.3223 -0.00175904 0)
(32.34 -0.00225739 0)
(32.3618 -0.00284733 0)
(32.3883 -0.00353458 0)
(32.4198 -0.00434624 0)
(32.4574 -0.00528271 0)
(32.501 -0.00638628 0)
(32.5521 -0.00766638 0)
(32.6009 -0.00891811 0)
(32.6434 -0.0100325 0)
(32.6884 -0.0111921 0)
(32.7362 -0.0124641 0)
(32.7867 -0.0138489 0)
(32.84 -0.0153272 0)
(32.8959 -0.0169427 0)
(32.9547 -0.0186493 0)
(33.0158 -0.0205538 0)
(33.0803 -0.0225184 0)
(33.1465 -0.0248032 0)
(33.217 -0.0270622 0)
(33.2879 -0.0298833 0)
(33.3654 -0.0324936 0)
(33.4407 -0.0361154 0)
(33.5272 -0.0392467 0)
(33.6056 -0.0440389 0)
(33.7057 -0.0484071 0)
(33.7845 -0.054634 0)
(33.9086 -0.0630654 0)
(33.9812 -0.070582 0)
(34.1556 -0.0930721 0)
(34.2023 -0.108601 0)
(34.489 -0.17579 0)
(34.4255 -0.306686 0)
(49.4084 0.164388 0)
(44.56 0.0767345 0)
(41.367 0.0391256 0)
(39.4446 0.0238504 0)
(38.2109 0.0162924 0)
(37.3595 0.0120076 0)
(36.7363 0.00939154 0)
(36.2556 0.0076596 0)
(35.875 0.0063856 0)
(35.5672 0.005447 0)
(35.3123 0.00474654 0)
(35.0976 0.00418768 0)
(34.9149 0.00373424 0)
(34.7575 0.00337222 0)
(34.6203 0.00307669 0)
(34.4996 0.00282297 0)
(34.3931 0.00260053 0)
(34.2984 0.00240843 0)
(34.2139 0.00224532 0)
(34.1379 0.00210608 0)
(34.0692 0.00198391 0)
(34.0069 0.0018736 0)
(33.9502 0.00177249 0)
(33.8986 0.00167996 0)
(33.8514 0.00159617 0)
(33.8082 0.00152112 0)
(33.7684 0.00145409 0)
(33.7318 0.00139409 0)
(33.698 0.00133993 0)
(33.6667 0.00129034 0)
(33.6376 0.00124426 0)
(33.6106 0.0012009 0)
(33.5855 0.00115972 0)
(33.5622 0.00112033 0)
(33.5404 0.00108243 0)
(33.5202 0.00104571 0)
(33.5013 0.0010097 0)
(33.4837 0.000973839 0)
(33.4674 0.000937313 0)
(33.4523 0.000899171 0)
(33.4382 0.000858143 0)
(33.4253 0.000812757 0)
(33.4136 0.000761101 0)
(33.4029 0.000701102 0)
(33.3934 0.000629817 0)
(33.3852 0.000544997 0)
(33.3783 0.000441738 0)
(33.3728 0.000314515 0)
(33.3689 0.000163346 0)
(33.3667 -1.78117e-05 0)
(33.3665 -0.000237356 0)
(33.3685 -0.000503835 0)
(33.3728 -0.00082523 0)
(33.3799 -0.00120725 0)
(33.39 -0.00165868 0)
(33.4035 -0.00219635 0)
(33.4208 -0.00282616 0)
(33.4422 -0.00357142 0)
(33.4684 -0.00443918 0)
(33.4996 -0.00546358 0)
(33.5368 -0.00664545 0)
(33.58 -0.00803719 0)
(33.6309 -0.00965024 0)
(33.6794 -0.0112265 0)
(33.7217 -0.0126308 0)
(33.7665 -0.0140933 0)
(33.8141 -0.015693 0)
(33.8643 -0.0174342 0)
(33.9174 -0.0192922 0)
(33.973 -0.0213212 0)
(34.0315 -0.0234642 0)
(34.0923 -0.0258515 0)
(34.1565 -0.0283164 0)
(34.2223 -0.0311724 0)
(34.2923 -0.0340045 0)
(34.3629 -0.0375178 0)
(34.4398 -0.040787 0)
(34.5145 -0.0452809 0)
(34.6002 -0.0491757 0)
(34.678 -0.0551441 0)
(34.7768 -0.0603939 0)
(34.8548 -0.0684315 0)
(34.9768 -0.0777693 0)
(35.0481 -0.0888493 0)
(35.2169 -0.111521 0)
(35.2632 -0.135488 0)
(35.5253 -0.198483 0)
(35.4689 -0.322968 0)
(50.3192 0.178253 0)
(46.3329 0.0941703 0)
(43.1494 0.0513811 0)
(41.0987 0.0318539 0)
(39.7553 0.0218107 0)
(38.8219 0.0160665 0)
(38.1367 0.0125473 0)
(37.6081 0.0102147 0)
(37.1895 0.00850482 0)
(36.851 0.00724474 0)
(36.5708 0.00630301 0)
(36.3351 0.00555376 0)
(36.1347 0.00494717 0)
(35.9621 0.00446241 0)
(35.8118 0.00406657 0)
(35.6798 0.00372771 0)
(35.5633 0.00343163 0)
(35.4599 0.00317622 0)
(35.3676 0.00295919 0)
(35.2846 0.00277374 0)
(35.2097 0.00261114 0)
(35.1418 0.00246466 0)
(35.08 0.00233076 0)
(35.0238 0.00220845 0)
(34.9724 0.0020978 0)
(34.9254 0.00199867 0)
(34.8822 0.00191008 0)
(34.8424 0.00183074 0)
(34.8056 0.00175911 0)
(34.7715 0.00169356 0)
(34.7399 0.00163272 0)
(34.7106 0.00157557 0)
(34.6833 0.00152139 0)
(34.6579 0.00146969 0)
(34.6343 0.00142004 0)
(34.6123 0.00137203 0)
(34.5918 0.00132506 0)
(34.5727 0.0012784 0)
(34.5549 0.00123104 0)
(34.5384 0.00118176 0)
(34.5231 0.00112896 0)
(34.509 0.00107079 0)
(34.4961 0.00100486 0)
(34.4844 0.000928555 0)
(34.4739 0.000838219 0)
(34.4647 0.000730869 0)
(34.4569 0.000600727 0)
(34.4506 0.000440968 0)
(34.4459 0.000250629 0)
(34.4429 2.25267e-05 0)
(34.442 -0.000253382 0)
(34.4432 -0.000587677 0)
(34.4469 -0.000990241 0)
(34.4534 -0.00146926 0)