/*--------------------------------*- C++ -*----------------------------------*\
| =========                 |                                                 |
| \\      /  F ield         | OpenFOAM: The Open Source CFD Toolbox           |
|  \\    /   O peration     | Version:  v2006                                 |
|   \\  /    A nd           | Website:  www.openfoam.com                      |
|    \\/     M anipulation  |                                                 |
\*---------------------------------------------------------------------------*/
FoamFile
{
    version     2.0;
    format      ascii;
    class       volVectorField;
    location    "10000";
    object      U;
}
// * * * * * * * * * * * * * * * * * * * * * * * * * * * * * * * * * * * * * //

dimensions      [0 1 -1 0 0 0 0];


internalField   nonuniform List<vector> 
20540
(
(40.3841 -0.000193826 0)
(54.0521 0.00496692 0)
(40.3972 -0.000626304 0)
(54.0264 0.0146231 0)
(40.4317 -0.00114985 0)
(53.964 0.0229047 0)
(40.4997 -0.00176672 0)
(53.8555 0.0299549 0)
(40.6172 -0.00248994 0)
(53.6908 0.036485 0)
(40.8043 -0.00332979 0)
(53.4584 0.0428833 0)
(41.0845 -0.00428901 0)
(53.1459 0.0491095 0)
(41.482 -0.00536052 0)
(52.7424 0.0549618 0)
(42.0175 -0.00652372 0)
(52.2398 0.0601801 0)
(42.7051 -0.00773937 0)
(51.6361 0.064449 0)
(43.549 -0.00894563 0)
(50.9386 0.0674119 0)
(44.5393 -0.0100548 0)
(50.1686 0.0687346 0)
(45.6397 -0.010937 0)
(49.3643 0.0682158 0)
(46.7561 -0.0113597 0)
(48.5817 0.0659124 0)
(47.7035 -0.0108828 0)
(47.8971 0.0620177 0)
(48.2051 -0.00966366 0)
(47.5546 0.0575388 0)
(48.071 -0.00994504 0)
(47.9239 0.0574814 0)
(47.957 -0.0100213 0)
(48.0344 0.0571647 0)
(48.0022 -0.0096201 0)
(47.9681 0.0559732 0)
(48.004 -0.00941114 0)
(47.9727 0.0548538 0)
(48.0011 -0.00900298 0)
(47.9767 0.0532992 0)
(48.0016 -0.00863606 0)
(47.9778 0.0515482 0)
(48.0018 -0.0081447 0)
(47.9797 0.0494165 0)
(48.0019 -0.00758943 0)
(47.9818 0.0468819 0)
(48.002 -0.00694824 0)
(47.9843 0.043871 0)
(48.0022 -0.00621662 0)
(47.987 0.0402983 0)
(48.0023 -0.00539548 0)
(47.99 0.0360693 0)
(48.0025 -0.00448532 0)
(47.9933 0.0310705 0)
(48.0026 -0.00349802 0)
(47.9965 0.0251668 0)
(48.0028 -0.00243246 0)
(47.9996 0.0181661 0)
(48.0029 -0.00139337 0)
(48.0017 0.0107645 0)
(48.0029 -0.000452299 0)
(48.0027 0.00360344 0)
(48.0029 0.000462286 0)
(48.0027 -0.00352428 0)
(48.0029 0.00140431 0)
(48.0017 -0.0106872 0)
(48.0028 0.00242562 0)
(47.9996 -0.0179753 0)
(48.0026 0.00345864 0)
(47.9967 -0.0247862 0)
(48.0025 0.00441844 0)
(47.9936 -0.0305657 0)
(48.0023 0.0053052 0)
(47.9905 -0.0354868 0)
(48.0022 0.00610953 0)
(47.9875 -0.0396745 0)
(48.002 0.00682981 0)
(47.9848 -0.0432332 0)
(48.0019 0.0074649 0)
(47.9824 -0.0462512 0)
(48.0018 0.00802307 0)
(47.9802 -0.0488086 0)
(48.0016 0.00850051 0)
(47.9784 -0.0509646 0)
(48.0015 0.00892157 0)
(47.9769 -0.0527855 0)
(48.0021 0.00922714 0)
(47.9751 -0.0542887 0)
(48.0047 0.00963436 0)
(47.9692 -0.0556732 0)
(47.9832 0.00970495 0)
(47.9883 -0.0564756 0)
(47.9712 0.0102538 0)
(48.0501 -0.0578392 0)
(48.1865 0.00954079 0)
(47.6937 -0.0568151 0)
(48.0287 0.0102773 0)
(47.6479 -0.0595642 0)
(47.3105 0.0112193 0)
(48.1879 -0.0639069 0)
(46.3009 0.0112058 0)
(48.898 -0.0670063 0)
(45.2149 0.0105815 0)
(49.6687 -0.0685658 0)
(44.1854 0.00963785 0)
(50.4386 -0.0684023 0)
(43.2744 0.00853106 0)
(51.1622 -0.0665603 0)
(42.5049 0.00736092 0)
(51.8101 -0.0632781 0)
(41.8813 0.00619927 0)
(52.3674 -0.058873 0)
(41.3973 0.00509663 0)
(52.83 -0.05366 0)
(41.0386 0.00408429 0)
(53.2013 -0.0479096 0)
(40.7852 0.00317815 0)
(53.4892 -0.0418418 0)
(40.6154 0.00238305 0)
(53.704 -0.0356224 0)
(40.5082 0.00169584 0)
(53.8567 -0.0292588 0)
(40.4457 0.00110707 0)
(53.9578 -0.0223597 0)
(40.4136 0.000605065 0)
(54.0162 -0.0142638 0)
(40.4013 0.000187772 0)
(54.0402 -0.0048458 0)
(5.9851 0.00598928 0)
(4.56202 1.14324e-05 0)
(4.19048 3.79156e-06 0)
(3.97072 2.88925e-06 0)
(3.82696 2.05414e-06 0)
(3.72546 1.57923e-06 0)
(3.64965 1.27154e-06 0)
(3.58965 1.05264e-06 0)
(3.54149 8.80843e-07 0)
(3.50209 7.59529e-07 0)
(3.46891 6.69035e-07 0)
(3.44066 5.92915e-07 0)
(3.41644 5.31312e-07 0)
(3.39538 4.83412e-07 0)
(3.37684 4.43443e-07 0)
(3.36042 4.07649e-07 0)
(3.34585 3.76028e-07 0)
(3.33287 3.49325e-07 0)
(3.32122 3.27166e-07 0)
(3.31069 3.08188e-07 0)
(3.30113 2.91208e-07 0)
(3.29242 2.75543e-07 0)
(3.28448 2.61029e-07 0)
(3.27724 2.47827e-07 0)
(3.27062 2.36081e-07 0)
(3.26454 2.25737e-07 0)
(3.25895 2.16606e-07 0)
(3.25378 2.08478e-07 0)
(3.249 2.0112e-07 0)
(3.24456 1.94298e-07 0)
(3.24043 1.87868e-07 0)
(3.2366 1.81728e-07 0)
(3.23303 1.75826e-07 0)
(3.22971 1.70113e-07 0)
(3.22662 1.6453e-07 0)
(3.22375 1.5896e-07 0)
(3.22108 1.53229e-07 0)
(3.2186 1.47106e-07 0)
(3.2163 1.40352e-07 0)
(3.21418 1.32537e-07 0)
(3.21223 1.2357e-07 0)
(3.21045 1.1238e-07 0)
(3.20885 1.00214e-07 0)
(3.20744 1.89469e-08 0)
(3.20613 -1.05582e-07 0)
(3.20504 7.97833e-10 0)
(3.20436 4.38468e-08 0)
(3.20375 -3.77868e-07 0)
(3.20337 -2.48199e-07 0)
(3.20366 1.158e-07 0)
(3.20416 -5.2684e-07 0)
(3.205 -5.1705e-07 0)
(3.20657 -1.27385e-07 0)
(3.2085 -4.10539e-07 0)
(3.21113 -3.5649e-07 0)
(3.21451 -5.94694e-07 0)
(3.21857 -1.22384e-06 0)
(3.22349 -1.58439e-06 0)
(3.22941 -1.90821e-06 0)
(3.2364 -2.27086e-06 0)
(3.24469 -2.78565e-06 0)
(3.25428 -3.14878e-06 0)
(3.26548 -3.77826e-06 0)
(3.27612 -5.19706e-06 0)
(3.28535 -5.83407e-06 0)
(3.29523 -6.50075e-06 0)
(3.3058 -7.34122e-06 0)
(3.31703 -8.26788e-06 0)
(3.32891 -9.35321e-06 0)
(3.34146 -1.05217e-05 0)
(3.35471 -1.19346e-05 0)
(3.36861 -1.33464e-05 0)
(3.38333 -1.52791e-05 0)
(3.39862 -1.68915e-05 0)
(3.41502 -1.98241e-05 0)
(3.43174 -2.13256e-05 0)
(3.45022 -2.65253e-05 0)
(3.46839 -2.67366e-05 0)
(3.48979 -3.77087e-05 0)
(3.50939 -3.30228e-05 0)
(3.53534 -5.959e-05 0)
(3.55703 -4.03272e-05 0)
(3.59001 -0.000108886 0)
(3.61883 -6.61368e-05 0)
(3.65952 -0.000238988 0)
(3.73698 -0.000299755 0)
(3.75772 -0.00170283 0)
(3.78844 -0.0261333 0)
(17.6607 0.0180206 0)
(14.1079 0.000887653 0)
(13.0218 0.000317972 0)
(12.3784 0.000204032 0)
(11.9543 0.000142743 0)
(11.6535 0.000107009 0)
(11.4282 8.49743e-05 0)
(11.2495 7.01407e-05 0)
(11.1057 5.88587e-05 0)
(10.9879 5.06099e-05 0)
(10.8886 4.44229e-05 0)
(10.8039 3.93482e-05 0)
(10.7313 3.52239e-05 0)
(10.668 3.19655e-05 0)
(10.6123 2.9276e-05 0)
(10.5629 2.69107e-05 0)
(10.5191 2.48168e-05 0)
(10.48 2.30212e-05 0)
(10.4449 2.15132e-05 0)
(10.4132 2.02252e-05 0)
(10.3844 1.90801e-05 0)
(10.3581 1.80288e-05 0)
(10.3342 1.70555e-05 0)
(10.3124 1.61639e-05 0)
(10.2924 1.53615e-05 0)
(10.274 1.46484e-05 0)
(10.2571 1.4015e-05 0)
(10.2415 1.34493e-05 0)
(10.2271 1.29366e-05 0)
(10.2137 1.24634e-05 0)
(10.2012 1.20191e-05 0)
(10.1896 1.1597e-05 0)
(10.1788 1.11929e-05 0)
(10.1688 1.08042e-05 0)
(10.1594 1.04286e-05 0)
(10.1508 1.00629e-05 0)
(10.1427 9.70197e-06 0)
(10.1352 9.3392e-06 0)
(10.1282 8.96503e-06 0)
(10.1217 8.56788e-06 0)
(10.1158 8.13354e-06 0)
(10.1104 7.64234e-06 0)
(10.1055 7.07885e-06 0)
(10.1012 6.22831e-06 0)
(10.0973 5.11025e-06 0)
(10.0941 4.46759e-06 0)
(10.0917 3.65527e-06 0)
(10.0897 1.26374e-06 0)
(10.0885 -2.67096e-07 0)
(10.089 -1.30351e-06 0)
(10.0902 -5.25109e-06 0)
(10.0926 -8.18628e-06 0)
(10.0968 -1.06158e-05 0)
(10.1021 -1.56829e-05 0)
(10.1095 -2.08459e-05 0)
(10.1188 -2.73065e-05 0)
(10.1302 -3.57076e-05 0)
(10.1441 -4.48927e-05 0)
(10.1609 -5.54489e-05 0)
(10.1807 -6.78702e-05 0)
(10.2041 -8.25367e-05 0)
(10.2313 -9.92407e-05 0)
(10.2628 -0.000119455 0)
(10.2926 -0.000141178 0)
(10.3187 -0.000158553 0)
(10.3466 -0.000177269 0)
(10.3764 -0.000198426 0)
(10.408 -0.000221286 0)
(10.4413 -0.000246188 0)
(10.4765 -0.000273371 0)
(10.5136 -0.000303036 0)
(10.5524 -0.000335625 0)
(10.5934 -0.00037125 0)
(10.6359 -0.000410792 0)
(10.6814 -0.000454718 0)
(10.7275 -0.000503248 0)
(10.7784 -0.000560447 0)
(10.8281 -0.000620511 0)
(10.8864 -0.000703908 0)
(10.9394 -0.000774631 0)
(11.0089 -0.000931593 0)
(11.0667 -0.000986312 0)
(11.152 -0.00138738 0)
(11.2272 -0.00132414 0)
(11.3228 -0.00278368 0)
(11.5122 -0.00254209 0)
(11.5051 -0.00486076 0)
(12.3701 -0.161469 0)
(26.3498 0.0298954 0)
(22.0019 0.00289316 0)
(20.6181 0.00109527 0)
(19.796 0.000707678 0)
(19.2466 0.0005016 0)
(18.8525 0.000379429 0)
(18.5548 0.000303342 0)
(18.3171 0.000251766 0)
(18.1247 0.000212255 0)
(17.9663 0.000183149 0)
(17.8322 0.000161219 0)
(17.7175 0.000143167 0)
(17.6188 0.000128432 0)
(17.5326 0.000116753 0)
(17.4566 0.000107095 0)
(17.389 9.8584e-05 0)
(17.329 9.10277e-05 0)
(17.2754 8.45296e-05 0)
(17.2272 7.90615e-05 0)
(17.1835 7.43871e-05 0)
(17.1438 7.02274e-05 0)
(17.1077 6.64042e-05 0)
(17.0747 6.28587e-05 0)
(17.0445 5.96053e-05 0)
(17.0169 5.66719e-05 0)
(16.9916 5.40619e-05 0)
(16.9682 5.17417e-05 0)
(16.9467 4.96677e-05 0)
(16.9267 4.77874e-05 0)
(16.9081 4.60508e-05 0)
(16.8909 4.44197e-05 0)
(16.8749 4.28693e-05 0)
(16.8599 4.13842e-05 0)
(16.8461 3.99553e-05 0)
(16.8332 3.85739e-05 0)
(16.8211 3.72296e-05 0)
(16.81 3.59044e-05 0)
(16.7996 3.45749e-05 0)
(16.79 3.32073e-05 0)
(16.7811 3.17609e-05 0)
(16.7729 3.01841e-05 0)
(16.7654 2.84089e-05 0)
(16.7587 2.63731e-05 0)
(16.7527 2.36942e-05 0)
(16.7476 2.03686e-05 0)
(16.7434 1.73319e-05 0)
(16.74 1.32915e-05 0)
(16.7377 6.32981e-06 0)
(16.7367 1.10824e-06 0)
(16.7368 -4.52166e-06 0)
(16.7384 -1.61726e-05 0)
(16.7419 -2.64673e-05 0)
(16.7471 -3.78646e-05 0)
(16.7544 -5.48735e-05 0)
(16.7643 -7.39223e-05 0)
(16.7766 -9.70098e-05 0)
(16.7922 -0.000124647 0)
(16.8111 -0.000156613 0)
(16.8338 -0.000193619 0)
(16.8607 -0.000237194 0)
(16.8925 -0.000288112 0)
(16.9292 -0.000347399 0)
(16.9726 -0.000418207 0)
(17.0143 -0.000489699 0)
(17.0502 -0.000549091 0)
(17.0881 -0.000612606 0)
(17.1283 -0.000684019 0)
(17.171 -0.000761265 0)
(17.2159 -0.00084475 0)
(17.2633 -0.0009357 0)
(17.3131 -0.00103378 0)
(17.3651 -0.00114204 0)
(17.4199 -0.00125758 0)
(17.4766 -0.0013885 0)
(17.537 -0.00152663 0)
(17.5982 -0.00168844 0)
(17.6654 -0.00185888 0)
(17.731 -0.00206527 0)
(17.8073 -0.00229355 0)
(17.8767 -0.00255429 0)
(17.9664 -0.00295525 0)
(18.0415 -0.00320232 0)
(18.1486 -0.00424772 0)
(18.246 -0.00402717 0)
(18.3569 -0.00829562 0)
(18.5941 -0.0051469 0)
(18.5418 -0.024977 0)
(19.7929 -0.199416 0)
(31.4356 0.0405648 0)
(26.5936 0.00550915 0)
(25.0218 0.00215555 0)
(24.1236 0.00138018 0)
(23.5318 0.000979064 0)
(23.111 0.000741638 0)
(22.795 0.00059375 0)
(22.5438 0.0004935 0)
(22.3412 0.000416697 0)
(22.1747 0.000359956 0)
(22.0341 0.000317178 0)
(21.914 0.000281983 0)
(21.8108 0.000253201 0)
(21.7208 0.000230342 0)
(21.6415 0.000211443 0)
(21.5711 0.000194798 0)
(21.5085 0.000180004 0)
(21.4527 0.000167256 0)
(21.4025 0.000156513 0)
(21.3571 0.000147326 0)
(21.3158 0.000139155 0)
(21.2782 0.000131647 0)
(21.2439 0.000124682 0)
(21.2125 0.000118283 0)
(21.1839 0.000112506 0)
(21.1575 0.00010736 0)
(21.1333 0.000102783 0)
(21.1109 9.86894e-05 0)
(21.0901 9.49791e-05 0)
(21.0709 9.15538e-05 0)
(21.053 8.83376e-05 0)
(21.0363 8.52811e-05 0)
(21.0208 8.2353e-05 0)
(21.0064 7.95348e-05 0)
(20.993 7.68096e-05 0)
(20.9806 7.41567e-05 0)
(20.969 7.1541e-05 0)
(20.9582 6.89167e-05 0)
(20.9482 6.62178e-05 0)
(20.939 6.33642e-05 0)
(20.9305 6.02542e-05 0)
(20.9228 5.67551e-05 0)
(20.9158 5.27358e-05 0)
(20.9096 4.78836e-05 0)
(20.9043 4.18726e-05 0)
(20.9 3.51783e-05 0)
(20.8965 2.7255e-05 0)
(20.8942 1.61077e-05 0)
(20.8933 4.03858e-06 0)
(20.8933 -1.01389e-05 0)
(20.8951 -2.99388e-05 0)
(20.8988 -5.10991e-05 0)
(20.9041 -7.59481e-05 0)
(20.9118 -0.000108295 0)
(20.922 -0.000146083 0)
(20.9349 -0.000190883 0)
(20.9511 -0.000243942 0)
(20.9708 -0.000306381 0)
(20.9945 -0.000378897 0)
(21.0225 -0.000464353 0)
(21.0556 -0.000563753 0)
(21.0939 -0.000680034 0)
(21.1391 -0.000816546 0)
(21.1827 -0.000951511 0)
(21.2202 -0.00106838 0)
(21.2597 -0.00119317 0)
(21.3016 -0.00133125 0)
(21.3459 -0.00148059 0)
(21.3928 -0.00164133 0)
(21.442 -0.0018165 0)
(21.4938 -0.00200425 0)
(21.5478 -0.0022123 0)
(21.6049 -0.00243176 0)
(21.6637 -0.00268331 0)
(21.7266 -0.00294217 0)
(21.7901 -0.00325458 0)
(21.8599 -0.00356633 0)
(21.9278 -0.00396979 0)
(22.0069 -0.00437218 0)
(22.0789 -0.00489256 0)
(22.1712 -0.00557862 0)
(22.2498 -0.00609195 0)
(22.3575 -0.00792688 0)
(22.4623 -0.00743352 0)
(22.564 -0.0153255 0)
(22.8216 -0.00753327 0)
(22.7396 -0.0530711 0)
(23.8905 -0.203339 0)
(34.7774 0.0519341 0)
(29.51 0.00872098 0)
(27.7259 0.00346251 0)
(26.7377 0.00218814 0)
(26.0963 0.00154606 0)
(25.6447 0.00116869 0)
(25.3077 0.000934359 0)
(25.0415 0.000775895 0)
(24.8275 0.000654882 0)
(24.6523 0.000565427 0)
(24.5049 0.000498047 0)
(24.3793 0.000442749 0)
(24.2714 0.000397516 0)
(24.1776 0.000361557 0)
(24.095 0.000331862 0)
(24.0218 0.000305758 0)
(23.9568 0.000282563 0)
(23.8988 0.000262558 0)
(23.8468 0.000245682 0)
(23.7997 0.000231254 0)
(23.757 0.000218435 0)
(23.718 0.000206669 0)
(23.6825 0.000195758 0)
(23.6501 0.000185732 0)
(23.6204 0.000176674 0)
(23.5932 0.0001686 0)
(23.5681 0.000161413 0)
(23.545 0.000154986 0)
(23.5236 0.000149162 0)
(23.5037 0.000143788 0)
(23.4852 0.000138746 0)
(23.468 0.000133957 0)
(23.452 0.00012937 0)
(23.4371 0.000124956 0)
(23.4233 0.000120687 0)
(23.4104 0.000116531 0)
(23.3984 0.000112433 0)
(23.3873 0.000108321 0)
(23.3769 0.000104093 0)
(23.3674 9.96245e-05 0)
(23.3586 9.4756e-05 0)
(23.3506 8.92813e-05 0)
(23.3434 8.29933e-05 0)
(23.337 7.55063e-05 0)
(23.3314 6.62999e-05 0)
(23.3269 5.5711e-05 0)
(23.3232 4.31575e-05 0)
(23.3208 2.65896e-05 0)
(23.3197 7.39835e-06 0)
(23.3197 -1.5722e-05 0)
(23.3215 -4.54338e-05 0)
(23.3251 -7.88979e-05 0)
(23.3305 -0.000118899 0)
(23.3383 -0.000168934 0)
(23.3487 -0.000227805 0)
(23.3619 -0.000297559 0)
(23.3784 -0.000379798 0)
(23.3985 -0.000476957 0)
(23.4227 -0.000589929 0)
(23.4512 -0.00072318 0)
(23.4851 -0.000877782 0)
(23.5241 -0.00105938 0)
(23.5701 -0.00127176 0)
(23.6142 -0.00148019 0)
(23.6523 -0.0016626 0)
(23.6926 -0.00185637 0)
(23.7353 -0.00207043 0)
(23.7806 -0.00230226 0)
(23.8283 -0.00255125 0)
(23.8785 -0.00282284 0)
(23.9314 -0.00311291 0)
(23.9865 -0.00343532 0)
(24.0447 -0.00377315 0)
(24.1047 -0.00416313 0)
(24.1688 -0.00455887 0)
(24.2335 -0.00504464 0)
(24.3047 -0.00551531 0)
(24.3738 -0.00614588 0)
(24.4543 -0.0067425 0)
(24.5276 -0.00756186 0)
(24.621 -0.00856022 0)
(24.7013 -0.00938516 0)
(24.809 -0.0120685 0)
(24.9157 -0.0113464 0)
(25.0173 -0.0228 0)
(25.2597 -0.0119822 0)
(25.2368 -0.0749609 0)
(26.031 -0.204097 0)
(37.3536 0.0647274 0)
(31.7697 0.0130152 0)
(29.7676 0.00524608 0)
(28.6792 0.00326617 0)
(27.9803 0.00229269 0)
(27.4918 0.00172591 0)
(27.1292 0.00137562 0)
(26.8441 0.00113964 0)
(26.6156 0.000960379 0)
(26.429 0.000827939 0)
(26.2725 0.000728358 0)
(26.1393 0.000646951 0)
(26.0251 0.000580414 0)
(25.926 0.000527492 0)
(25.8388 0.000483867 0)
(25.7616 0.000445629 0)
(25.6931 0.000411697 0)
(25.6321 0.000382419 0)
(25.5773 0.000357701 0)
(25.5278 0.000336575 0)
(25.4829 0.000317837 0)
(25.442 0.000300671 0)
(25.4047 0.000284769 0)
(25.3707 0.000270159 0)
(25.3395 0.000256954 0)
(25.311 0.000245175 0)
(25.2847 0.000234687 0)
(25.2604 0.000225307 0)
(25.2379 0.000216812 0)
(25.2171 0.000208981 0)
(25.1977 0.000201641 0)
(25.1797 0.000194674 0)
(25.1629 0.000188007 0)
(25.1473 0.000181593 0)
(25.1328 0.00017539 0)
(25.1192 0.000169353 0)
(25.1067 0.0001634 0)
(25.095 0.000157428 0)
(25.0842 0.00015129 0)
(25.0741 0.000144806 0)
(25.0649 0.000137747 0)
(25.0565 0.000129814 0)
(25.0489 0.000120711 0)
(25.0421 0.00010987 0)
(25.0363 9.65985e-05 0)
(25.0314 8.13283e-05 0)
(25.0275 6.29679e-05 0)
(25.0248 3.92457e-05 0)
(25.0235 1.167e-05 0)
(25.0234 -2.20113e-05 0)
(25.0252 -6.43485e-05 0)
(25.0287 -0.00011281 0)
(25.0341 -0.000171241 0)
(25.0421 -0.00024329 0)
(25.0526 -0.000328222 0)
(25.0661 -0.00042891 0)
(25.083 -0.000547286 0)
(25.1034 -0.000687333 0)
(25.1282 -0.000850276 0)
(25.1574 -0.00104262 0)
(25.192 -0.00126542 0)
(25.232 -0.00152791 0)
(25.2789 -0.00183466 0)
(25.3238 -0.0021348 0)
(25.3627 -0.00239837 0)
(25.4039 -0.00267682 0)
(25.4476 -0.0029848 0)
(25.4939 -0.00331888 0)
(25.5427 -0.00367717 0)
(25.594 -0.0040684 0)
(25.6481 -0.00448513 0)
(25.7044 -0.00494951 0)
(25.7639 -0.0054337 0)
(25.825 -0.00599561 0)
(25.8905 -0.00656018 0)
(25.9565 -0.00726134 0)
(26.0291 -0.00792725 0)
(26.0994 -0.0088393 0)
(26.1814 -0.00967396 0)
(26.256 -0.0108623 0)
(26.3505 -0.0122348 0)
(26.4317 -0.0134569 0)
(26.5411 -0.0171077 0)
(26.6449 -0.0162914 0)
(26.7575 -0.0313561 0)
(26.9589 -0.0189483 0)
(27.0427 -0.0932795 0)
(27.4637 -0.21459 0)
(39.5377 0.0787919 0)
(33.7498 0.0186276 0)
(31.5302 0.00767108 0)
(30.3342 0.00471439 0)
(29.5724 0.00328767 0)
(29.0429 0.00246436 0)
(28.6516 0.00195775 0)
(28.3453 0.00161774 0)
(28.1004 0.00136088 0)
(27.901 0.00117125 0)
(27.7339 0.0010289 0)
(27.5921 0.000913013 0)
(27.4707 0.000818394 0)
(27.3655 0.000743101 0)
(27.273 0.000681143 0)
(27.1912 0.000627005 0)
(27.1187 0.000579038 0)
(27.0541 0.00053764 0)
(26.9962 0.000502664 0)
(26.9439 0.000472782 0)
(26.8965 0.00044632 0)
(26.8533 0.000422127 0)
(26.814 0.000399744 0)
(26.7781 0.000379187 0)
(26.7452 0.0003606 0)
(26.7151 0.000344011 0)
(26.6874 0.000329235 0)
(26.6618 0.00031602 0)
(26.6381 0.000304057 0)
(26.6161 0.00029304 0)
(26.5957 0.000282724 0)
(26.5767 0.000272944 0)
(26.5591 0.00026359 0)
(26.5426 0.000254597 0)
(26.5273 0.000245905 0)
(26.5131 0.000237445 0)
(26.4999 0.000229108 0)
(26.4876 0.000220748 0)
(26.4761 0.000212161 0)
(26.4656 0.000203098 0)
(26.4558 0.000193239 0)
(26.447 0.000182174 0)
(26.4389 0.000169492 0)
(26.4317 0.000154389 0)
(26.4255 0.000135953 0)
(26.4203 0.000114758 0)
(26.4161 8.90594e-05 0)
(26.4132 5.61833e-05 0)
(26.4116 1.80447e-05 0)
(26.4114 -2.88313e-05 0)
(26.413 -8.71907e-05 0)
(26.4164 -0.000154512 0)
(26.4219 -0.000236073 0)
(26.4298 -0.00033593 0)
(26.4405 -0.0004537 0)
(26.4542 -0.000593403 0)
(26.4713 -0.000757352 0)
(26.4922 -0.000951419 0)
(26.5174 -0.00117728 0)
(26.5472 -0.00144404 0)
(26.5825 -0.00175265 0)
(26.6233 -0.00211672 0)
(26.6711 -0.00254159 0)
(26.7168 -0.00295699 0)
(26.7565 -0.00332306 0)
(26.7985 -0.00370771 0)
(26.8431 -0.00413319 0)
(26.8903 -0.00459536 0)
(26.9401 -0.00509042 0)
(26.9924 -0.00563142 0)
(27.0475 -0.00620632 0)
(27.1048 -0.00684808 0)
(27.1654 -0.00751461 0)
(27.2277 -0.0082908 0)
(27.2943 -0.00906499 0)
(27.3613 -0.0100336 0)
(27.4351 -0.0109412 0)
(27.5065 -0.0122005 0)
(27.5895 -0.0133282 0)
(27.6651 -0.0149712 0)
(27.7608 -0.0167855 0)
(27.842 -0.0185318 0)
(27.9541 -0.0232113 0)
(28.0514 -0.0226726 0)
(28.181 -0.0408233 0)
(28.3322 -0.0294544 0)
(28.5194 -0.108414 0)
(28.6735 -0.232587 0)
(41.4813 0.093961 0)
(35.6071 0.0257619 0)
(33.1735 0.0109131 0)
(31.8617 0.00664022 0)
(31.0309 0.00460272 0)
(30.4562 0.00343597 0)
(30.0329 0.00272066 0)
(29.7029 0.00224225 0)
(29.4399 0.00188283 0)
(29.226 0.00161769 0)
(29.0473 0.00141895 0)
(28.8959 0.0012578 0)
(28.7664 0.0011264 0)
(28.6543 0.00102179 0)
(28.556 0.00093585 0)
(28.4691 0.000860988 0)
(28.3921 0.000794777 0)
(28.3236 0.000737632 0)
(28.2622 0.000689319 0)
(28.2068 0.000648051 0)
(28.1566 0.000611564 0)
(28.1109 0.000578272 0)
(28.0693 0.000547515 0)
(28.0313 0.000519283 0)
(27.9966 0.000493751 0)
(27.9647 0.000470952 0)
(27.9354 0.000450638 0)
(27.9084 0.000432468 0)
(27.8834 0.000416027 0)
(27.8602 0.000400899 0)
(27.8386 0.000386751 0)
(27.8186 0.000373351 0)
(27.8 0.000360548 0)
(27.7826 0.000348247 0)
(27.7665 0.000336365 0)
(27.7515 0.000324806 0)
(27.7375 0.000313422 0)
(27.7245 0.000302016 0)
(27.7124 0.000290313 0)
(27.7013 0.000277975 0)
(27.691 0.000264574 0)
(27.6816 0.000249555 0)
(27.673 0.000232364 0)
(27.6654 0.00021193 0)
(27.6588 0.000187043 0)
(27.6532 0.000158392 0)
(27.6486 0.000123542 0)
(27.6454 7.92602e-05 0)
(27.6435 2.78549e-05 0)
(27.6431 -3.54353e-05 0)
(27.6445 -0.000113737 0)
(27.6478 -0.00020461 0)
(27.6533 -0.000314917 0)
(27.6612 -0.000449345 0)
(27.6719 -0.00060795 0)
(27.6857 -0.000796185 0)
(27.703 -0.00101683 0)
(27.7241 -0.00127804 0)
(27.7497 -0.00158207 0)
(27.7799 -0.00194125 0)
(27.8157 -0.00235641 0)
(27.8571 -0.00284633 0)
(27.9057 -0.00341705 0)
(27.952 -0.00397512 0)
(27.9924 -0.00446863 0)
(28.035 -0.00498496 0)
(28.0803 -0.00555545 0)
(28.1282 -0.00617578 0)
(28.1788 -0.00683957 0)
(28.2318 -0.00756528 0)
(28.2878 -0.00833495 0)
(28.3459 -0.00919494 0)
(28.4073 -0.0100855 0)
(28.4704 -0.0111245 0)
(28.5379 -0.0121557 0)
(28.6057 -0.0134507 0)
(28.6802 -0.014654 0)
(28.7524 -0.0163343 0)
(28.8361 -0.0178176 0)
(28.9123 -0.0200151 0)
(29.0088 -0.022334 0)
(29.0892 -0.0247845 0)
(29.2046 -0.0304609 0)
(29.2935 -0.0308258 0)
(29.4409 -0.0510747 0)
(29.5461 -0.0438577 0)
(29.8051 -0.12183 0)
(29.8137 -0.252558 0)
(43.2433 0.11004 0)
(37.4134 0.0346468 0)
(34.775 0.0151996 0)
(33.3385 0.0091897 0)
(32.4314 0.00633599 0)
(31.8059 0.00471173 0)
(31.3467 0.00371881 0)
(30.99 0.00305671 0)
(30.7063 0.002562 0)
(30.476 0.00219734 0)
(30.2842 0.00192432 0)
(30.1219 0.00170381 0)
(29.9833 0.00152429 0)
(29.8634 0.00138132 0)
(29.7585 0.00126402 0)
(29.6659 0.00116217 0)
(29.5839 0.00107227 0)
(29.5109 0.0009947 0)
(29.4456 0.000929071 0)
(29.3868 0.000873019 0)
(29.3334 0.000823535 0)
(29.2849 0.000778476 0)
(29.2408 0.000736916 0)
(29.2005 0.000698796 0)
(29.1637 0.000664321 0)
(29.1299 0.000633523 0)
(29.0989 0.000606072 0)
(29.0702 0.000581515 0)
(29.0437 0.000559303 0)
(29.0192 0.000538884 0)
(28.9963 0.000519808 0)
(28.9751 0.000501762 0)
(28.9554 0.000484539 0)
(28.9371 0.000468006 0)
(28.92 0.000452048 0)
(28.9041 0.000436538 0)
(28.8893 0.000421275 0)
(28.8755 0.000406 0)
(28.8628 0.000390349 0)
(28.8509 0.000373876 0)
(28.84 0.000356017 0)
(28.83 0.00033604 0)
(28.821 0.00031321 0)
(28.8129 0.000286155 0)
(28.8057 0.000253285 0)
(28.7997 0.000215331 0)
(28.7948 0.000169164 0)
(28.7912 0.000110838 0)
(28.789 4.29271e-05 0)
(28.7883 -4.06036e-05 0)
(28.7895 -0.000143471 0)
(28.7926 -0.000263503 0)
(28.7979 -0.000409199 0)
(28.8057 -0.000586153 0)
(28.8164 -0.00079503 0)
(28.8302 -0.00104301 0)
(28.8475 -0.00133347 0)
(28.8688 -0.00167729 0)
(28.8945 -0.00207747 0)
(28.925 -0.00255024 0)
(28.9611 -0.00309636 0)
(29.003 -0.00374072 0)
(29.052 -0.00449009 0)
(29.0988 -0.00522299 0)
(29.1396 -0.00587302 0)
(29.1827 -0.00655113 0)
(29.2285 -0.00729892 0)
(29.2768 -0.0081126 0)
(29.3279 -0.00898257 0)
(29.3815 -0.00993381 0)
(29.4379 -0.0109411 0)
(29.4966 -0.0120669 0)
(29.5586 -0.0132305 0)
(29.6222 -0.0145884 0)
(29.6901 -0.0159324 0)
(29.7585 -0.0176212 0)
(29.8334 -0.0191842 0)
(29.9061 -0.0213697 0)
(29.9901 -0.0232805 0)
(30.0664 -0.0261516 0)
(30.1634 -0.0290346 0)
(30.2425 -0.0324258 0)
(30.3607 -0.0390001 0)
(30.4414 -0.0410502 0)
(30.6028 -0.0623495 0)
(30.6747 -0.0618306 0)
(30.9666 -0.13584 0)
(30.9168 -0.270863 0)
(44.8351 0.126672 0)
(39.2023 0.0455071 0)
(36.378 0.0208199 0)
(34.8083 0.0125618 0)
(33.8166 0.00862386 0)
(33.134 0.00639117 0)
(32.6338 0.00502882 0)
(32.2465 0.00412255 0)
(31.9391 0.00344894 0)
(31.69 0.00295274 0)
(31.4829 0.00258151 0)
(31.308 0.00228285 0)
(31.1589 0.00204013 0)
(31.0302 0.00184675 0)
(30.9176 0.00168827 0)
(30.8183 0.00155111 0)
(30.7306 0.00143033 0)
(30.6525 0.00132615 0)
(30.5828 0.00123795 0)
(30.5199 0.00116262 0)
(30.463 0.00109621 0)
(30.4113 0.00103587 0)
(30.3642 0.000980321 0)
(30.3213 0.000929418 0)
(30.2821 0.00088339 0)
(30.2461 0.000842254 0)
(30.2131 0.000805576 0)
(30.1826 0.000772759 0)
(30.1544 0.000743084 0)
(30.1283 0.000715826 0)
(30.1041 0.000690391 0)
(30.0815 0.000666362 0)
(30.0606 0.000643457 0)
(30.0411 0.000621495 0)
(30.0229 0.000600319 0)
(30.006 0.000579758 0)
(29.9903 0.000559551 0)
(29.9757 0.000539356 0)
(29.9621 0.000518701 0)
(29.9495 0.000497007 0)
(29.9379 0.000473541 0)
(29.9273 0.000447355 0)
(29.9176 0.000417487 0)
(29.9089 0.000382226 0)
(29.9012 0.000339504 0)
(29.8947 0.000289999 0)
(29.8893 0.000229888 0)
(29.8853 0.000154347 0)
(29.8827 6.60283e-05 0)
(29.8817 -4.23535e-05 0)
(29.8825 -0.000175339 0)
(29.8853 -0.000331272 0)
(29.8904 -0.000520314 0)
(29.898 -0.000749306 0)
(29.9085 -0.00101973 0)
(29.9221 -0.00134086 0)
(29.9394 -0.00171683 0)
(29.9606 -0.00216173 0)
(29.9864 -0.0026795 0)
(30.0169 -0.00329113 0)
(30.0532 -0.00399732 0)
(30.0953 -0.00483021 0)
(30.1446 -0.00579747 0)
(30.1916 -0.00674343 0)
(30.2325 -0.0075843 0)
(30.2759 -0.00846014 0)
(30.3219 -0.00942365 0)
(30.3706 -0.0104724 0)
(30.4219 -0.011593 0)
(30.4757 -0.0128181 0)
(30.5324 -0.014114 0)
(30.5913 -0.0155617 0)
(30.6535 -0.0170565 0)
(30.7174 -0.0187989 0)
(30.7855 -0.0205222 0)
(30.854 -0.0226835 0)
(30.929 -0.0246824 0)
(31.0018 -0.0274712 0)
(31.0858 -0.0298939 0)
(31.1619 -0.0335789 0)
(31.259 -0.0370926 0)
(31.3366 -0.0417017 0)
(31.4565 -0.0490725 0)
(31.5309 -0.0535822 0)
(31.6994 -0.0751951 0)
(31.7528 -0.0828219 0)
(32.0465 -0.152105 0)
(31.9835 -0.287121 0)
(46.2386 0.143253 0)
(40.9833 0.0584903 0)
(38.0083 0.0281189 0)
(36.3 0.0170177 0)
(35.215 0.0116502 0)
(34.4681 0.00861 0)
(33.9212 0.0067559 0)
(33.4987 0.0055244 0)
(33.1638 0.00461351 0)
(32.8928 0.00394282 0)
(32.668 0.00344115 0)
(32.4784 0.00303904 0)
(32.317 0.00271288 0)
(32.1778 0.00245286 0)
(32.0563 0.00223998 0)
(31.9493 0.0020563 0)
(31.8547 0.00189501 0)
(31.7708 0.00175597 0)
(31.6957 0.00163818 0)
(31.6282 0.00153755 0)
(31.567 0.00144895 0)
(31.5116 0.00136863 0)
(31.4611 0.00129484 0)
(31.4151 0.00122731 0)
(31.3731 0.00116627 0)
(31.3346 0.0011117 0)
(31.2992 0.00106302 0)
(31.2666 0.00101946 0)
(31.2364 0.00098007 0)
(31.2085 0.000943919 0)
(31.1826 0.00091023 0)
(31.1585 0.000878448 0)
(31.1361 0.000848198 0)
(31.1152 0.000819234 0)
(31.0958 0.000791344 0)
(31.0778 0.000764299 0)
(31.061 0.00073776 0)
(31.0453 0.000711286 0)
(31.0308 0.000684269 0)
(31.0173 0.000655964 0)
(31.0049 0.000625434 0)
(30.9934 0.000591468 0)
(30.983 0.000552813 0)
(30.9736 0.000507377 0)
(30.9653 0.000452514 0)
(30.9582 0.000388714 0)
(30.9523 0.000311445 0)
(30.9477 0.000214854 0)
(30.9446 0.000101418 0)
(30.9431 -3.73877e-05 0)
(30.9435 -0.000207174 0)
(30.9459 -0.000407117 0)
(30.9507 -0.000649068 0)
(30.958 -0.0009415 0)
(30.9682 -0.00128699 0)
(30.9816 -0.00169728 0)
(30.9987 -0.00217755 0)
(31.0197 -0.00274564 0)
(31.0453 -0.00340665 0)
(31.0757 -0.00418728 0)
(31.1119 -0.00508834 0)
(31.1539 -0.00615042 0)
(31.2032 -0.00738248 0)
(31.2502 -0.00858702 0)
(31.2911 -0.0096593 0)
(31.3345 -0.0107758 0)
(31.3806 -0.0120008 0)
(31.4292 -0.0133342 0)
(31.4806 -0.0147582 0)
(31.5344 -0.0163144 0)
(31.5911 -0.0179593 0)
(31.6499 -0.0197949 0)
(31.7121 -0.0216902 0)
(31.7759 -0.0238942 0)
(31.8438 -0.0260763 0)
(31.9123 -0.0288011 0)
(31.987 -0.0313274 0)
(32.0596 -0.0348326 0)
(32.143 -0.0378689 0)
(32.2187 -0.0425262 0)
(32.3154 -0.0467615 0)
(32.3917 -0.0528731 0)
(32.5115 -0.0610202 0)
(32.5822 -0.0686037 0)
(32.7507 -0.090274 0)
(32.7972 -0.106432 0)
(33.0744 -0.171275 0)
(33.0148 -0.302443 0)
(47.4115 0.158868 0)
(42.7448 0.0735588 0)
(39.6795 0.037475 0)
(37.8338 0.0228885 0)
(36.648 0.0156581 0)
(35.8293 0.0115504 0)
(35.2295 0.00904248 0)
(34.7666 0.00737746 0)
(34.4 0.00615121 0)
(34.1035 0.00524839 0)
(33.8579 0.00457279 0)
(33.6511 0.00403311 0)
(33.4752 0.00359622 0)
(33.3237 0.00324766 0)
(33.1915 0.0029624 0)
(33.0754 0.00271709 0)
(32.9728 0.0025023 0)
(32.8818 0.0023173 0)
(32.8004 0.00216045 0)
(32.7273 0.00202638 0)
(32.6612 0.00190846 0)
(32.6012 0.00180182 0)
(32.5467 0.00170409 0)
(32.4971 0.00161479 0)
(32.4517 0.00153411 0)
(32.4102 0.00146196 0)
(32.372 0.00139757 0)
(32.3368 0.00133992 0)
(32.3043 0.0012878 0)
(32.2742 0.00124 0)
(32.2463 0.00119551 0)
(32.2203 0.00115361 0)
(32.1962 0.0011138 0)
(32.1737 0.00107575 0)
(32.1529 0.00103916 0)
(32.1334 0.00100375 0)
(32.1153 0.000969055 0)
(32.0984 0.000934527 0)
(32.0828 0.000899385 0)
(32.0682 0.000862681 0)
(32.0548 0.000823225 0)
(32.0424 0.000779487 0)
(32.0311 0.000729852 0)
(32.0209 0.000671787 0)
(32.0118 0.000601964 0)
(32.0039 0.000520513 0)
(31.9973 0.000422162 0)
(31.992 0.000299875 0)
(31.9883 0.000155648 0)
(31.9863 -2.03045e-05 0)
(31.9861 -0.000234921 0)
(31.988 -0.000488591 0)
(31.9923 -0.000794912 0)
(31.9991 -0.00116441 0)
(32.0089 -0.00160109 0)
(32.0219 -0.00211967 0)
(32.0386 -0.00272665 0)
(32.0592 -0.00344426 0)
(32.0845 -0.00427907 0)
(32.1146 -0.00526454 0)
(32.1505 -0.00640188 0)
(32.1922 -0.00774143 0)
(32.2412 -0.00929417 0)
(32.2879 -0.0108113 0)
(32.3286 -0.0121627 0)
(32.3718 -0.0135709 0)
(32.4176 -0.0151115 0)
(32.4661 -0.0167884 0)
(32.5172 -0.0185782 0)
(32.5708 -0.020533 0)
(32.6272 -0.0225985 0)
(32.6857 -0.0248998 0)
(32.7475 -0.0272776 0)
(32.811 -0.0300329 0)
(32.8785 -0.0327686 0)
(32.9465 -0.036162 0)
(33.0206 -0.0393258 0)
(33.0927 -0.0436747 0)
(33.1753 -0.0474519 0)
(33.2505 -0.0532486 0)
(33.3458 -0.0583444 0)
(33.4213 -0.0662119 0)
(33.5391 -0.0752571 0)
(33.6085 -0.0862959 0)
(33.7716 -0.108198 0)
(33.8174 -0.132511 0)
(34.0707 -0.19344 0)
(34.0175 -0.317765 0)
(48.2938 0.172311 0)
(44.4503 0.0903317 0)
(41.3923 0.0492424 0)
(39.4231 0.0305758 0)
(38.1323 0.0209624 0)
(37.2349 0.0154544 0)
(36.5758 0.0120799 0)
(36.0669 0.00983758 0)
(35.664 0.00819193 0)
(35.3381 0.00697988 0)
(35.0682 0.00607179 0)
(34.8413 0.00534848 0)
(34.6483 0.00476407 0)
(34.4822 0.00429732 0)
(34.3375 0.00391532 0)
(34.2105 0.00358781 0)
(34.0984 0.00330198 0)
(33.9989 0.00305601 0)
(33.9101 0.00284727 0)
(33.8303 0.00266871 0)
(33.7583 0.00251181 0)
(33.6929 0.00237024 0)
(33.6336 0.00224085 0)
(33.5795 0.00212283 0)
(33.5301 0.00201628 0)
(33.4849 0.00192097 0)
(33.4434 0.00183587 0)
(33.4051 0.00175962 0)
(33.3698 0.00169069 0)
(33.337 0.00162751 0)
(33.3067 0.00156878 0)
(33.2785 0.00151357 0)
(33.2523 0.00146122 0)
(33.2279 0.00141127 0)
(33.2052 0.00136335 0)
(33.1841 0.00131704 0)
(33.1644 0.00127179 0)
(33.1461 0.00122687 0)
(33.129 0.0011813 0)
(33.1132 0.00113388 0)
(33.0985 0.0010831 0)
(33.085 0.00102705 0)
(33.0726 0.000963668 0)
(33.0614 0.000889901 0)
(33.0513 0.000801633 0)
(33.0425 0.000698424 0)
(33.035 0.000574195 0)
(33.029 0.000420581 0)
(33.0245 0.000238742 0)
(33.0217 1.75457e-05 0)
(33.0209 -0.000251529 0)
(33.0221 -0.000570528 0)
(33.0257 -0.000954911 0)
(33.0319 -0.00141772 0)
(33.0411 -0.00196478 0)