/*--------------------------------*- C++ -*----------------------------------*\
| =========                 |                                                 |
| \\      /  F ield         | OpenFOAM: The Open Source CFD Toolbox           |
|  \\    /   O peration     | Version:  v2006                                 |
|   \\  /    A nd           | Website:  www.openfoam.com                      |
|    \\/     M anipulation  |                                                 |
\*---------------------------------------------------------------------------*/
FoamFile
{
    version     2.0;
    format      ascii;
    class       volVectorField;
    location    "10000";
    object      U;
}
// * * * * * * * * * * * * * * * * * * * * * * * * * * * * * * * * * * * * * //

dimensions      [0 1 -1 0 0 0 0];


internalField   nonuniform List<vector> 
20540
(
(41.2332 -0.000197204 0)
(55.1634 0.00505304 0)
(41.2467 -0.000637279 0)
(55.1371 0.0148612 0)
(41.2823 -0.00117 0)
(55.073 0.0232429 0)
(41.3524 -0.00179749 0)
(54.962 0.03037 0)
(41.4734 -0.00253315 0)
(54.7937 0.0369893 0)
(41.6661 -0.00338747 0)
(54.5561 0.0434884 0)
(41.9543 -0.0043631 0)
(54.2369 0.0498165 0)
(42.3624 -0.00545273 0)
(53.8247 0.0557643 0)
(42.9115 -0.00663519 0)
(53.3113 0.0610663 0)
(43.6154 -0.00787029 0)
(52.6947 0.0654001 0)
(44.4783 -0.00909485 0)
(51.9827 0.0684019 0)
(45.4902 -0.0102194 0)
(51.197 0.0697317 0)
(46.6139 -0.0111115 0)
(50.3773 0.0691873 0)
(47.7526 -0.0115326 0)
(49.5811 0.0668313 0)
(48.7152 -0.0110301 0)
(48.8861 0.0628579 0)
(49.2166 -0.00978798 0)
(48.5462 0.0583208 0)
(49.069 -0.0101145 0)
(48.9286 0.0583408 0)
(48.9559 -0.0101651 0)
(49.0343 0.0579734 0)
(49.0026 -0.00976594 0)
(48.9673 0.056776 0)
(49.0041 -0.00955116 0)
(48.9723 0.0556377 0)
(49.0011 -0.00913753 0)
(48.9763 0.0540624 0)
(49.0017 -0.00876452 0)
(48.9775 0.052287 0)
(49.0018 -0.00826583 0)
(48.9793 0.0501262 0)
(49.0019 -0.00770189 0)
(48.9815 0.0475566 0)
(49.0021 -0.00705105 0)
(48.984 0.0445042 0)
(49.0022 -0.00630837 0)
(48.9868 0.040882 0)
(49.0024 -0.00547491 0)
(48.9899 0.0365938 0)
(49.0025 -0.0045512 0)
(48.9932 0.0315245 0)
(49.0027 -0.00354931 0)
(48.9965 0.0255364 0)
(49.0028 -0.00246808 0)
(48.9996 0.0184345 0)
(49.0029 -0.00141369 0)
(49.0017 0.0109246 0)
(49.003 -0.000458798 0)
(49.0028 0.00365806 0)
(49.003 0.000469166 0)
(49.0028 -0.0035749 0)
(49.0029 0.00142502 0)
(49.0017 -0.0108434 0)
(49.0028 0.00246137 0)
(48.9996 -0.0182384 0)
(49.0027 0.00350959 0)
(48.9967 -0.0251483 0)
(49.0025 0.0044836 0)
(48.9935 -0.0310107 0)
(49.0024 0.00538359 0)
(48.9903 -0.0360017 0)
(49.0022 0.00620001 0)
(48.9873 -0.0402484 0)
(49.0021 0.00693116 0)
(48.9846 -0.0438568 0)
(49.002 0.00757591 0)
(48.9821 -0.0469169 0)
(49.0019 0.0081427 0)
(48.9799 -0.0495097 0)
(49.0017 0.00862719 0)
(48.9781 -0.0516955 0)
(49.0015 0.00905569 0)
(48.9765 -0.0535421 0)
(49.0022 0.00936408 0)
(48.9747 -0.0550649 0)
(49.0049 0.00978186 0)
(48.9688 -0.0564725 0)
(48.9836 0.0098439 0)
(48.9869 -0.0572779 0)
(48.9679 0.0104222 0)
(49.0536 -0.0586865 0)
(49.1905 0.00968187 0)
(48.694 -0.0576327 0)
(49.0426 0.0104096 0)
(48.6351 -0.0603656 0)
(48.3166 0.0113827 0)
(49.1812 -0.0647881 0)
(47.2885 0.0113807 0)
(49.9028 -0.06795 0)
(46.18 0.0107524 0)
(50.6875 -0.0695506 0)
(45.1284 0.00979698 0)
(51.4725 -0.0694003 0)
(44.1974 0.00867427 0)
(52.211 -0.0675404 0)
(43.4103 0.00748604 0)
(52.8726 -0.064212 0)
(42.7716 0.00630559 0)
(53.4418 -0.0597386 0)
(42.2751 0.00518455 0)
(53.9144 -0.0544415 0)
(41.9066 0.00415502 0)
(54.2937 -0.048597 0)
(41.646 0.00323334 0)
(54.5879 -0.0424304 0)
(41.4711 0.00242452 0)
(54.8074 -0.0361141 0)
(41.3607 0.00172545 0)
(54.9636 -0.0296653 0)
(41.2962 0.00112652 0)
(55.067 -0.0226918 0)
(41.2631 0.000615693 0)
(55.1269 -0.0144978 0)
(41.2505 0.000191052 0)
(55.1516 -0.00493052 0)
(6.22587 0.00611188 0)
(4.75015 1.01825e-05 0)
(4.36055 3.76341e-06 0)
(4.13052 2.99574e-06 0)
(3.98027 2.14727e-06 0)
(3.87423 1.65394e-06 0)
(3.79513 1.33158e-06 0)
(3.73255 1.10341e-06 0)
(3.68233 9.23972e-07 0)
(3.64126 7.97326e-07 0)
(3.60669 7.03061e-07 0)
(3.57725 6.23531e-07 0)
(3.55201 5.58997e-07 0)
(3.53006 5.09164e-07 0)
(3.51074 4.68046e-07 0)
(3.49363 4.31155e-07 0)
(3.47845 3.98034e-07 0)
(3.46493 3.69621e-07 0)
(3.45279 3.45909e-07 0)
(3.44182 3.25687e-07 0)
(3.43185 3.07718e-07 0)
(3.42278 2.91219e-07 0)
(3.41451 2.75961e-07 0)
(3.40696 2.62103e-07 0)
(3.40006 2.49791e-07 0)
(3.39373 2.38966e-07 0)
(3.3879 2.29436e-07 0)
(3.38252 2.21022e-07 0)
(3.37753 2.13472e-07 0)
(3.3729 2.06527e-07 0)
(3.3686 1.99987e-07 0)
(3.36461 1.93712e-07 0)
(3.36089 1.87619e-07 0)
(3.35743 1.81664e-07 0)
(3.35421 1.75807e-07 0)
(3.35121 1.6997e-07 0)
(3.34843 1.64008e-07 0)
(3.34584 1.57716e-07 0)
(3.34344 1.50801e-07 0)
(3.34123 1.42897e-07 0)
(3.33919 1.33547e-07 0)
(3.33734 1.22224e-07 0)
(3.33567 1.08291e-07 0)
(3.33419 9.11792e-08 0)
(3.33292 6.34962e-08 0)
(3.33187 -2.76819e-08 0)
(3.33097 -1.21595e-07 0)
(3.33043 -1.22376e-07 0)
(3.33019 -3.55821e-07 0)
(3.33012 -3.3654e-07 0)
(3.33072 4.07426e-09 0)
(3.33167 -2.17697e-07 0)
(3.33316 -3.4515e-07 0)
(3.33539 -3.42373e-07 0)
(3.33804 -6.76806e-07 0)
(3.34144 -9.36876e-07 0)
(3.34568 -1.19646e-06 0)
(3.35078 -1.51971e-06 0)
(3.35694 -1.89408e-06 0)
(3.3642 -2.30123e-06 0)
(3.3728 -2.84927e-06 0)
(3.38276 -3.22106e-06 0)
(3.3944 -3.84493e-06 0)
(3.40545 -5.27578e-06 0)
(3.41504 -5.94732e-06 0)
(3.42531 -6.67156e-06 0)
(3.43628 -7.53704e-06 0)
(3.44795 -8.49094e-06 0)
(3.4603 -9.61241e-06 0)
(3.47333 -1.0817e-05 0)
(3.4871 -1.22747e-05 0)
(3.50153 -1.37249e-05 0)
(3.51683 -1.57194e-05 0)
(3.5327 -1.73719e-05 0)
(3.54974 -2.0404e-05 0)
(3.56709 -2.19247e-05 0)
(3.58627 -2.73099e-05 0)
(3.60512 -2.74497e-05 0)
(3.62732 -3.88247e-05 0)
(3.64762 -3.3794e-05 0)
(3.67451 -6.13544e-05 0)
(3.69697 -4.09425e-05 0)
(3.73101 -0.000111888 0)
(3.76084 -6.69227e-05 0)
(3.80249 -0.000242077 0)
(3.88253 -0.000308759 0)
(3.90201 -0.0017342 0)
(3.93667 -0.0255468 0)
(18.3031 0.0183805 0)
(14.6468 0.000926018 0)
(13.5157 0.000335192 0)
(12.8466 0.000214814 0)
(12.406 0.00015012 0)
(12.0935 0.000112437 0)
(11.8598 8.91919e-05 0)
(11.6744 7.35886e-05 0)
(11.5254 6.17318e-05 0)
(11.4032 5.30584e-05 0)
(11.3003 4.65695e-05 0)
(11.2125 4.12509e-05 0)
(11.1371 3.69204e-05 0)
(11.0716 3.34997e-05 0)
(11.0138 3.06831e-05 0)
(10.9627 2.82085e-05 0)
(10.9172 2.60143e-05 0)
(10.8767 2.41285e-05 0)
(10.8403 2.2544e-05 0)
(10.8074 2.11929e-05 0)
(10.7776 1.99942e-05 0)
(10.7503 1.8895e-05 0)
(10.7255 1.78771e-05 0)
(10.7029 1.69437e-05 0)
(10.6821 1.61024e-05 0)
(10.6631 1.53543e-05 0)
(10.6456 1.46897e-05 0)
(10.6294 1.40966e-05 0)
(10.6144 1.35599e-05 0)
(10.6005 1.30651e-05 0)
(10.5876 1.26011e-05 0)
(10.5756 1.21604e-05 0)
(10.5644 1.17385e-05 0)
(10.554 1.13325e-05 0)
(10.5443 1.09398e-05 0)
(10.5352 1.05574e-05 0)
(10.5268 1.01799e-05 0)
(10.5191 9.80051e-06 0)
(10.5118 9.40928e-06 0)
(10.5051 8.99442e-06 0)
(10.499 8.54031e-06 0)
(10.4933 8.02817e-06 0)
(10.4883 7.43589e-06 0)
(10.4838 6.73431e-06 0)
(10.4798 5.88034e-06 0)
(10.4766 4.67343e-06 0)
(10.4739 3.22897e-06 0)
(10.4722 2.09068e-06 0)
(10.4711 -1.91047e-07 0)
(10.4707 -2.63074e-06 0)
(10.4723 -4.10102e-06 0)
(10.4748 -7.7383e-06 0)
(10.4789 -1.19556e-05 0)
(10.4848 -1.61581e-05 0)
(10.4923 -2.221e-05 0)
(10.5018 -2.90527e-05 0)
(10.5136 -3.69934e-05 0)
(10.528 -4.6526e-05 0)
(10.5453 -5.76172e-05 0)
(10.5657 -7.06443e-05 0)
(10.59 -8.5969e-05 0)
(10.6181 -0.000103385 0)
(10.6507 -0.000124393 0)
(10.6815 -0.000146944 0)
(10.7085 -0.000165104 0)
(10.7374 -0.000184686 0)
(10.7681 -0.000206723 0)
(10.8008 -0.000230537 0)
(10.8353 -0.000256479 0)
(10.8717 -0.000284789 0)
(10.91 -0.000315669 0)
(10.9502 -0.000349582 0)
(10.9926 -0.00038663 0)
(11.0365 -0.000427743 0)
(11.0835 -0.00047337 0)
(11.1312 -0.000523757 0)
(11.1837 -0.000583062 0)
(11.2351 -0.000645265 0)
(11.2952 -0.000731564 0)
(11.35 -0.000804288 0)
(11.4216 -0.000966893 0)
(11.4812 -0.00102076 0)
(11.5688 -0.00143656 0)
(11.6464 -0.00136098 0)
(11.7434 -0.00286405 0)
(11.9389 -0.00258428 0)
(11.9251 -0.00491857 0)
(12.8256 -0.163473 0)
(27.1006 0.0303905 0)
(22.6488 0.00299122 0)
(21.2268 0.00113886 0)
(20.3854 0.000734107 0)
(19.8243 0.000519722 0)
(19.4221 0.000392882 0)
(19.1187 0.000313881 0)
(18.8764 0.000260475 0)
(18.6803 0.000219588 0)
(18.5189 0.000189445 0)
(18.3823 0.000166789 0)
(18.2654 0.00014815 0)
(18.1648 0.000132904 0)
(18.077 0.000120816 0)
(17.9995 0.000110843 0)
(17.9307 0.000102062 0)
(17.8694 9.42532e-05 0)
(17.8148 8.75232e-05 0)
(17.7656 8.18563e-05 0)
(17.7211 7.70189e-05 0)
(17.6807 7.2723e-05 0)
(17.6438 6.87788e-05 0)
(17.6101 6.51197e-05 0)
(17.5793 6.17576e-05 0)
(17.5512 5.87216e-05 0)
(17.5253 5.60176e-05 0)
(17.5015 5.36131e-05 0)
(17.4795 5.14649e-05 0)
(17.4591 4.95199e-05 0)
(17.4402 4.77258e-05 0)
(17.4226 4.60423e-05 0)
(17.4062 4.44427e-05 0)
(17.391 4.29103e-05 0)
(17.3768 4.1435e-05 0)
(17.3637 4.00078e-05 0)
(17.3514 3.86179e-05 0)
(17.34 3.72472e-05 0)
(17.3294 3.58717e-05 0)
(17.3196 3.44568e-05 0)
(17.3105 3.2961e-05 0)
(17.3021 3.13294e-05 0)
(17.2945 2.94958e-05 0)
(17.2876 2.73827e-05 0)
(17.2815 2.48857e-05 0)
(17.2762 2.18903e-05 0)
(17.2718 1.79987e-05 0)
(17.2685 1.33603e-05 0)
(17.2662 8.27719e-06 0)
(17.2649 4.3902e-07 0)
(17.2652 -7.03869e-06 0)
(17.2669 -1.40149e-05 0)
(17.2702 -2.66175e-05 0)
(17.2757 -4.06867e-05 0)
(17.2831 -5.63345e-05 0)
(17.2931 -7.69493e-05 0)
(17.3058 -0.00010074 0)
(17.3216 -0.000128503 0)
(17.3409 -0.000161427 0)
(17.3641 -0.000199821 0)
(17.3915 -0.000245021 0)
(17.4239 -0.00029771 0)
(17.4613 -0.00035902 0)
(17.5056 -0.000432118 0)
(17.5482 -0.000505765 0)
(17.5849 -0.000567189 0)
(17.6235 -0.000632976 0)
(17.6646 -0.000706732 0)
(17.708 -0.000786512 0)
(17.7539 -0.000872718 0)
(17.8022 -0.000966621 0)
(17.853 -0.00106783 0)
(17.906 -0.00117953 0)
(17.9619 -0.00129866 0)
(18.0197 -0.00143365 0)
(18.0813 -0.0015759 0)
(18.1437 -0.00174261 0)
(18.2122 -0.00191781 0)
(18.279 -0.00213014 0)
(18.3567 -0.00236442 0)
(18.4274 -0.00263135 0)
(18.5187 -0.00304391 0)
(18.5953 -0.00329048 0)
(18.7039 -0.00437105 0)
(18.8034 -0.00410735 0)
(18.9142 -0.00853117 0)
(19.1582 -0.00507559 0)
(19.0946 -0.025857 0)
(20.3854 -0.200753 0)
(32.2065 0.0411829 0)
(27.2515 0.00565896 0)
(25.6397 0.0022223 0)
(24.7219 0.00141932 0)
(24.1186 0.00100548 0)
(23.69 0.000761081 0)
(23.3684 0.000608857 0)
(23.1129 0.000505942 0)
(22.9068 0.000427157 0)
(22.7375 0.000368912 0)
(22.5946 0.000325107 0)
(22.4725 0.000289091 0)
(22.3675 0.000259577 0)
(22.2761 0.000236131 0)
(22.1954 0.000216789 0)
(22.1238 0.000199771 0)
(22.0601 0.000184622 0)
(22.0033 0.000171542 0)
(21.9523 0.000160512 0)
(21.9061 0.000151093 0)
(21.8641 0.000142733 0)
(21.8258 0.000135059 0)
(21.7909 0.000127937 0)
(21.759 0.000121386 0)
(21.7298 0.000115463 0)
(21.703 0.000110182 0)
(21.6783 0.000105482 0)
(21.6555 0.000101282 0)
(21.6344 9.74792e-05 0)
(21.6148 9.39728e-05 0)
(21.5966 9.06838e-05 0)
(21.5796 8.75593e-05 0)
(21.5639 8.45661e-05 0)
(21.5492 8.1684e-05 0)
(21.5355 7.88949e-05 0)
(21.5228 7.6178e-05 0)
(21.511 7.34978e-05 0)
(21.5 7.0808e-05 0)
(21.4899 6.80413e-05 0)
(21.4805 6.51172e-05 0)
(21.4718 6.19289e-05 0)
(21.464 5.83472e-05 0)
(21.4568 5.42214e-05 0)
(21.4505 4.93446e-05 0)
(21.4451 4.35464e-05 0)
(21.4405 3.6345e-05 0)
(21.4371 2.75578e-05 0)
(21.4347 1.76879e-05 0)
(21.4335 4.24938e-06 0)
(21.434 -1.16182e-05 0)
(21.4357 -2.87373e-05 0)
(21.4393 -5.18537e-05 0)
(21.4449 -7.91899e-05 0)
(21.4525 -0.000110801 0)
(21.4629 -0.000149779 0)
(21.4761 -0.00019572 0)
(21.4926 -0.000249552 0)
(21.5126 -0.000313402 0)
(21.5367 -0.000387866 0)
(21.5652 -0.00047564 0)
(21.5989 -0.00057758 0)
(21.6378 -0.000696739 0)
(21.6838 -0.00083651 0)
(21.7282 -0.00097476 0)
(21.7663 -0.00109466 0)
(21.8065 -0.00122258 0)
(21.8491 -0.00136402 0)
(21.8942 -0.00151701 0)
(21.9419 -0.00168165 0)
(21.992 -0.00186107 0)
(22.0447 -0.00205328 0)
(22.0997 -0.00226629 0)
(22.1577 -0.00249082 0)
(22.2175 -0.00274822 0)
(22.2815 -0.0030128 0)
(22.346 -0.00333228 0)
(22.417 -0.00365043 0)
(22.486 -0.00406252 0)
(22.5665 -0.00447274 0)
(22.6396 -0.0050019 0)
(22.7334 -0.00570355 0)
(22.8132 -0.00621455 0)
(22.9223 -0.0081009 0)
(23.0292 -0.00753272 0)
(23.1305 -0.0156661 0)
(23.3947 -0.00737453 0)
(23.3027 -0.0543484 0)
(24.4812 -0.203735 0)
(35.5737 0.0527599 0)
(30.1873 0.00894343 0)
(28.3596 0.00355813 0)
(27.3499 0.00224255 0)
(26.6957 0.00158216 0)
(26.2355 0.00119499 0)
(25.8923 0.000954634 0)
(25.6213 0.000792514 0)
(25.4035 0.000668815 0)
(25.2252 0.000577319 0)
(25.0752 0.000508564 0)
(24.9473 0.000452179 0)
(24.8375 0.000405969 0)
(24.742 0.000369222 0)
(24.6579 0.000338939 0)
(24.5834 0.000312345 0)
(24.5172 0.000288685 0)
(24.4582 0.000268239 0)
(24.4052 0.000250979 0)
(24.3572 0.000236242 0)
(24.3137 0.000223174 0)
(24.274 0.000211194 0)
(24.2379 0.000200081 0)
(24.2048 0.000189856 0)
(24.1746 0.000180605 0)
(24.1468 0.000172349 0)
(24.1213 0.000164999 0)
(24.0977 0.000158428 0)
(24.0758 0.000152481 0)
(24.0556 0.000147 0)
(24.0367 0.000141863 0)
(24.0192 0.000136986 0)
(24.0029 0.000132315 0)
(23.9877 0.000127818 0)
(23.9736 0.000123466 0)
(23.9605 0.000119226 0)
(23.9482 0.000115042 0)
(23.9369 0.000110844 0)
(23.9263 0.000106526 0)
(23.9166 0.000101964 0)
(23.9077 9.69919e-05 0)
(23.8995 9.14084e-05 0)
(23.8921 8.49805e-05 0)
(23.8855 7.73837e-05 0)
(23.8799 6.83745e-05 0)
(23.8751 5.72436e-05 0)
(23.8715 4.37131e-05 0)
(23.8689 2.82253e-05 0)
(23.8677 7.9985e-06 0)
(23.8679 -1.66344e-05 0)
(23.8696 -4.48206e-05 0)
(23.8733 -8.0513e-05 0)
(23.8789 -0.00012256 0)
(23.8867 -0.0001722 0)
(23.8973 -0.000232472 0)
(23.9107 -0.000303649 0)
(23.9275 -0.000387241 0)
(23.9479 -0.000486371 0)
(23.9726 -0.000601899 0)
(24.0016 -0.000738195 0)
(24.0361 -0.000896158 0)
(24.0758 -0.00108162 0)
(24.1226 -0.00129845 0)
(24.1675 -0.00151136 0)
(24.2064 -0.00169779 0)
(24.2474 -0.00189566 0)
(24.2909 -0.00211422 0)
(24.3369 -0.00235093 0)
(24.3855 -0.00260515 0)
(24.4366 -0.00288243 0)
(24.4905 -0.00317847 0)
(24.5466 -0.00350755 0)
(24.6058 -0.00385212 0)
(24.6668 -0.00424999 0)
(24.7321 -0.0046533 0)
(24.7979 -0.00514862 0)
(24.8704 -0.00562766 0)
(24.9406 -0.0062699 0)
(25.0226 -0.0068767 0)
(25.0971 -0.00770781 0)
(25.192 -0.00872654 0)
(25.2736 -0.00954783 0)
(25.3827 -0.0123002 0)
(25.4915 -0.0114742 0)
(25.5933 -0.0232523 0)
(25.8411 -0.01179 0)
(25.8126 -0.0764507 0)
(26.6214 -0.204077 0)
(38.1804 0.0657963 0)
(32.4743 0.013338 0)
(30.4254 0.00538383 0)
(29.3137 0.00334369 0)
(28.601 0.00234385 0)
(28.1031 0.00176307 0)
(27.7337 0.00140421 0)
(27.4434 0.00116304 0)
(27.2108 0.000979982 0)
(27.0209 0.000844659 0)
(26.8615 0.000743136 0)
(26.7259 0.000660201 0)
(26.6096 0.000592292 0)
(26.5086 0.000538259 0)
(26.4198 0.000493804 0)
(26.3412 0.000454879 0)
(26.2714 0.000420296 0)
(26.2092 0.000390399 0)
(26.1534 0.000365142 0)
(26.103 0.000343582 0)
(26.0572 0.000324495 0)
(26.0156 0.000307027 0)
(25.9775 0.000290842 0)
(25.9428 0.000275954 0)
(25.9111 0.000262478 0)
(25.882 0.000250445 0)
(25.8551 0.000239727 0)
(25.8304 0.000230144 0)
(25.8075 0.000221475 0)
(25.7862 0.000213494 0)
(25.7664 0.000206019 0)
(25.748 0.000198929 0)
(25.7309 0.000192144 0)
(25.715 0.000185613 0)
(25.7002 0.000179295 0)
(25.6864 0.00017314 0)
(25.6736 0.000167068 0)
(25.6617 0.000160976 0)
(25.6506 0.000154712 0)
(25.6404 0.000148096 0)
(25.631 0.000140891 0)
(25.6224 0.000132806 0)
(25.6146 0.000123506 0)
(25.6077 0.00011252 0)
(25.6017 9.95084e-05 0)
(25.5966 8.34135e-05 0)
(25.5927 6.39334e-05 0)
(25.5899 4.14075e-05 0)
(25.5885 1.24128e-05 0)
(25.5885 -2.2849e-05 0)
(25.5902 -6.42075e-05 0)
(25.5938 -0.000115551 0)
(25.5995 -0.000175711 0)
(25.6074 -0.000247644 0)
(25.6182 -0.000334579 0)
(25.6319 -0.000437148 0)
(25.649 -0.00055767 0)
(25.6699 -0.000700609 0)
(25.6951 -0.00086708 0)
(25.7248 -0.00106361 0)
(25.76 -0.00129107 0)
(25.8007 -0.00155898 0)
(25.8485 -0.001872 0)
(25.8942 -0.00217841 0)
(25.9339 -0.00244757 0)
(25.9758 -0.0027317 0)
(26.0204 -0.00304593 0)
(26.0675 -0.00338683 0)
(26.1172 -0.00375239 0)
(26.1695 -0.00415156 0)
(26.2245 -0.00457658 0)
(26.2818 -0.00505024 0)
(26.3424 -0.0055438 0)
(26.4047 -0.00611669 0)
(26.4714 -0.00669171 0)
(26.5385 -0.00740617 0)
(26.6124 -0.00808359 0)
(26.684 -0.00901187 0)
(26.7674 -0.00986043 0)
(26.8433 -0.0110653 0)
(26.9394 -0.0124649 0)
(27.022 -0.0136836 0)
(27.1329 -0.0174251 0)
(27.2386 -0.0164781 0)
(27.352 -0.0319512 0)
(27.5573 -0.0187878 0)
(27.6398 -0.0949684 0)
(28.066 -0.214719 0)
(40.3969 0.0801228 0)
(34.4855 0.019076 0)
(32.2157 0.00786403 0)
(30.9945 0.00482241 0)
(30.2177 0.00335872 0)
(29.6781 0.00251587 0)
(29.2794 0.00199733 0)
(28.9675 0.0016501 0)
(28.7182 0.00138798 0)
(28.5151 0.00119436 0)
(28.3451 0.00104932 0)
(28.2006 0.000931314 0)
(28.077 0.000834801 0)
(27.9698 0.000757971 0)
(27.8756 0.000694863 0)
(27.7923 0.000639775 0)
(27.7184 0.00059091 0)
(27.6525 0.000548662 0)
(27.5935 0.000512942 0)
(27.5402 0.000482459 0)
(27.4919 0.000455514 0)
(27.4479 0.000430903 0)
(27.4078 0.00040813 0)
(27.3712 0.000387191 0)
(27.3377 0.000368231 0)
(27.3069 0.000351291 0)
(27.2787 0.000336197 0)
(27.2526 0.000322701 0)
(27.2284 0.000310497 0)
(27.206 0.000299271 0)
(27.1852 0.00028877 0)
(27.1658 0.000278818 0)
(27.1478 0.000269302 0)
(27.131 0.000260149 0)
(27.1154 0.000251297 0)
(27.1009 0.000242676 0)
(27.0874 0.000234175 0)
(27.0748 0.000225649 0)
(27.0631 0.000216889 0)
(27.0523 0.000207644 0)
(27.0424 0.000197587 0)
(27.0333 0.000186313 0)
(27.0251 0.000173359 0)
(27.0178 0.000158067 0)
(27.0114 0.000139978 0)
(27.006 0.000117606 0)
(27.0018 9.05794e-05 0)
(26.9987 5.91253e-05 0)
(26.997 1.89458e-05 0)
(26.9969 -2.97124e-05 0)
(26.9984 -8.74376e-05 0)
(27.002 -0.000158563 0)
(27.0076 -0.000241673 0)
(27.0157 -0.000341633 0)
(27.0265 -0.000462199 0)
(27.0404 -0.000604403 0)
(27.0579 -0.000771472 0)
(27.0791 -0.000969609 0)
(27.1048 -0.00120024 0)
(27.1351 -0.00147263 0)
(27.171 -0.00178757 0)
(27.2126 -0.00215903 0)
(27.2613 -0.00259245 0)
(27.3078 -0.00301636 0)
(27.3483 -0.00339002 0)
(27.3911 -0.00378239 0)
(27.4365 -0.00421635 0)
(27.4846 -0.00468779 0)
(27.5353 -0.00519269 0)
(27.5886 -0.00574445 0)
(27.6447 -0.00633057 0)
(27.7031 -0.0069849 0)
(27.7648 -0.00766407 0)
(27.8283 -0.00845511 0)
(27.8961 -0.00924337 0)
(27.9643 -0.01023 0)
(28.0394 -0.011153 0)
(28.1121 -0.0124341 0)
(28.1966 -0.0135803 0)
(28.2735 -0.0152459 0)
(28.3708 -0.0170949 0)
(28.4534 -0.0188403 0)
(28.5672 -0.0236307 0)
(28.6662 -0.0229464 0)
(28.7974 -0.0415598 0)
(28.9508 -0.0294168 0)
(29.1402 -0.110196 0)
(29.2942 -0.233112 0)
(42.3728 0.0955713 0)
(36.3756 0.0263641 0)
(33.8884 0.0111771 0)
(32.5492 0.00678782 0)
(31.7021 0.00469954 0)
(31.1163 0.00350601 0)
(30.6852 0.00277442 0)
(30.3492 0.00228613 0)
(30.0813 0.00191956 0)
(29.8634 0.00164899 0)
(29.6815 0.00144657 0)
(29.5273 0.00128255 0)
(29.3954 0.00114859 0)
(29.2812 0.0010419 0)
(29.181 0.00095439 0)
(29.0925 0.000878238 0)
(29.0141 0.000810815 0)
(28.9442 0.000752523 0)
(28.8816 0.000703205 0)
(28.8252 0.000661123 0)
(28.774 0.000623981 0)
(28.7274 0.000590123 0)
(28.685 0.000558838 0)
(28.6462 0.00053009 0)
(28.6108 0.000504055 0)
(28.5784 0.000480784 0)
(28.5485 0.000460039 0)
(28.5209 0.00044149 0)
(28.4954 0.000424722 0)
(28.4717 0.000409311 0)
(28.4497 0.000394912 0)
(28.4293 0.00038128 0)
(28.4103 0.000368257 0)
(28.3926 0.00035574 0)
(28.3761 0.000343643 0)
(28.3608 0.000331868 0)
(28.3465 0.000320264 0)
(28.3332 0.000308635 0)
(28.3209 0.000296699 0)
(28.3095 0.000284119 0)
(28.299 0.000270452 0)
(28.2894 0.000255152 0)
(28.2807 0.0002376 0)
(28.2729 0.000216904 0)
(28.2661 0.000192447 0)
(28.2603 0.000162257 0)
(28.2557 0.000125797 0)
(28.2524 8.31573e-05 0)
(28.2504 2.90463e-05 0)
(28.2501 -3.63245e-05 0)
(28.2514 -0.000114344 0)
(28.2548 -0.000210099 0)
(28.2604 -0.000321947 0)
(28.2684 -0.000456724 0)
(28.2793 -0.000619029 0)
(28.2933 -0.000810558 0)
(28.311 -0.00103549 0)
(28.3324 -0.00130221 0)
(28.3585 -0.00161253 0)
(28.3892 -0.00197911 0)
(28.4257 -0.00240263 0)
(28.4679 -0.00290236 0)
(28.5174 -0.00348441 0)
(28.5646 -0.00405372 0)
(28.6057 -0.00455728 0)
(28.6492 -0.00508383 0)
(28.6953 -0.00566554 0)
(28.7441 -0.0062981 0)
(28.7956 -0.00697488 0)
(28.8497 -0.00771478 0)
(28.9066 -0.00849926 0)
(28.9658 -0.00937581 0)
(29.0284 -0.0102831 0)
(29.0927 -0.0113415 0)
(29.1614 -0.0123913 0)
(29.2305 -0.0137098 0)
(29.3064 -0.0149334 0)
(29.3799 -0.0166423 0)
(29.4651 -0.0181496 0)
(29.5425 -0.0203774 0)
(29.6408 -0.0227387 0)
(29.7225 -0.025195 0)
(29.8397 -0.0309978 0)
(29.9301 -0.0312206 0)
(30.0797 -0.0519499 0)
(30.186 -0.0440247 0)
(30.4491 -0.123674 0)
(30.4555 -0.253514 0)
(44.1659 0.111944 0)
(38.216 0.0354362 0)
(35.5205 0.0155556 0)
(34.0541 0.0093892 0)
(33.1291 0.00646659 0)
(32.4916 0.00480602 0)
(32.0238 0.00379106 0)
(31.6605 0.00311559 0)
(31.3715 0.00261122 0)
(31.137 0.00223925 0)
(30.9416 0.00196125 0)
(30.7763 0.00173688 0)
(30.6351 0.00155392 0)
(30.513 0.00140815 0)
(30.4061 0.00128875 0)
(30.3117 0.00118516 0)
(30.2282 0.00109365 0)
(30.1538 0.00101454 0)
(30.0872 0.000947575 0)
(30.0272 0.000890433 0)
(29.9729 0.000840069 0)
(29.9234 0.000794251 0)
(29.8784 0.000751986 0)
(29.8373 0.000713178 0)
(29.7998 0.000678034 0)
(29.7653 0.000646607 0)
(29.7337 0.000618583 0)
(29.7044 0.000593521 0)
(29.6774 0.000570872 0)
(29.6524 0.000550073 0)
(29.6291 0.00053066 0)
(29.6074 0.000512305 0)
(29.5873 0.000494788 0)
(29.5686 0.000477969 0)
(29.5512 0.000461726 0)
(29.5349 0.000445929 0)
(29.5198 0.000430375 0)
(29.5058 0.000414805 0)
(29.4927 0.000398847 0)
(29.4807 0.000382053 0)
(29.4695 0.000363845 0)
(29.4593 0.000343498 0)
(29.4501 0.000320198 0)
(29.4418 0.000292769 0)
(29.4345 0.000260388 0)
(29.4283 0.000220545 0)
(29.4233 0.000172405 0)
(29.4196 0.000115882 0)
(29.4173 4.46067e-05 0)
(29.4166 -4.1413e-05 0)
(29.4178 -0.000144419 0)
(29.4209 -0.000270522 0)
(29.4264 -0.000417978 0)
(29.4343 -0.000595627 0)
(29.4451 -0.000809219 0)
(29.4592 -0.0010615 0)
(29.4768 -0.00135766 0)
(29.4984 -0.00170872 0)
(29.5246 -0.00211705 0)
(29.5557 -0.0025994 0)
(29.5925 -0.00315638 0)
(29.6351 -0.0038135 0)
(29.6851 -0.00457761 0)
(29.7328 -0.00532508 0)
(29.7743 -0.00598815 0)
(29.8183 -0.00667957 0)
(29.8649 -0.00744193 0)
(29.9142 -0.00827147 0)
(29.9662 -0.00915827 0)
(30.0208 -0.0101279 0)
(30.0783 -0.0111544 0)
(30.1381 -0.0123016 0)
(30.2012 -0.0134868 0)
(30.266 -0.0148698 0)
(30.3352 -0.0162378 0)
(30.4048 -0.0179569 0)
(30.4812 -0.0195461 0)
(30.5551 -0.0217684 0)
(30.6407 -0.0237099 0)
(30.7183 -0.0266211 0)
(30.8171 -0.0295545 0)
(30.8974 -0.0329635 0)
(31.0177 -0.0396735 0)
(31.0996 -0.041605 0)
(31.2636 -0.0633736 0)
(31.336 -0.0622647 0)
(31.6329 -0.137779 0)
(31.5803 -0.272221 0)
(45.7868 0.128876 0)
(40.0397 0.0465222 0)
(37.1551 0.0212951 0)
(35.5528 0.01283 0)
(34.5415 0.00879927 0)
(33.8456 0.00651758 0)
(33.336 0.00512554 0)
(32.9414 0.00420118 0)
(32.6282 0.00351458 0)
(32.3745 0.00300857 0)
(32.1636 0.00263063 0)
(31.9855 0.00232676 0)
(31.8335 0.00207946 0)
(31.7023 0.00188234 0)
(31.5876 0.00172104 0)
(31.4865 0.00158154 0)
(31.397 0.00145861 0)
(31.3175 0.0013524 0)
(31.2464 0.00126243 0)
(31.1823 0.00118565 0)
(31.1242 0.00111806 0)
(31.0715 0.00105671 0)
(31.0235 0.00100022 0)
(30.9798 0.000948401 0)
(30.9398 0.000901488 0)
(30.9031 0.000859522 0)
(30.8694 0.000822085 0)
(30.8383 0.000788599 0)
(30.8095 0.000758345 0)
(30.7829 0.000730583 0)
(30.7582 0.000704701 0)
(30.7352 0.00068026 0)
(30.7138 0.000656966 0)
(30.6939 0.000634626 0)
(30.6754 0.000613074 0)
(30.6581 0.000592136 0)
(30.6421 0.000571547 0)
(30.6271 0.000550964 0)
(30.6133 0.000529908 0)
(30.6004 0.000507795 0)
(30.5886 0.000483873 0)
(30.5777 0.000457205 0)
(30.5678 0.000426736 0)
(30.5589 0.000390941 0)
(30.5511 0.000348732 0)
(30.5443 0.000296999 0)
(30.5389 0.000234466 0)
(30.5347 0.000160795 0)
(30.532 6.8465e-05 0)
(30.531 -4.29415e-05 0)
(30.5318 -0.000176586 0)
(30.5347 -0.00033987 0)
(30.5399 -0.000531171 0)
(30.5476 -0.000761374 0)
(30.5583 -0.00103768 0)
(30.5722 -0.00136435 0)
(30.5898 -0.00174771 0)
(30.6113 -0.00220196 0)
(30.6376 -0.00273018 0)
(30.6687 -0.00335404 0)
(30.7056 -0.00407417 0)
(30.7485 -0.00492343 0)
(30.7987 -0.00590959 0)
(30.8466 -0.00687421 0)
(30.8883 -0.00773179 0)
(30.9325 -0.00862472 0)
(30.9794 -0.00960688 0)
(31.029 -0.010676 0)
(31.0813 -0.0118181 0)
(31.1361 -0.0130667 0)
(31.1939 -0.0143871 0)
(31.2539 -0.0158621 0)
(31.3173 -0.0173844 0)
(31.3823 -0.0191591 0)
(31.4517 -0.0209129 0)
(31.5215 -0.0231127 0)
(31.5979 -0.0251451 0)
(31.672 -0.0279806 0)
(31.7575 -0.0304418 0)
(31.8349 -0.0341796 0)
(31.9339 -0.0377516 0)
(32.0127 -0.0423966 0)
(32.1348 -0.0499078 0)
(32.2101 -0.0543385 0)
(32.3815 -0.076394 0)
(32.4351 -0.0835711 0)
(32.7339 -0.154198 0)
(32.6685 -0.288886 0)
(47.216 0.145749 0)
(41.8558 0.0597716 0)
(38.8181 0.0287476 0)
(37.0744 0.0173768 0)
(35.9678 0.0118854 0)
(35.2061 0.00877924 0)
(34.6488 0.00688522 0)
(34.2183 0.0056293 0)
(33.8771 0.00470092 0)
(33.6011 0.00401707 0)
(33.372 0.00350635 0)
(33.1789 0.00309723 0)
(33.0144 0.00276494 0)
(32.8725 0.00249994 0)
(32.7487 0.00228326 0)
(32.6396 0.00209646 0)
(32.5433 0.0019323 0)
(32.4576 0.00179058 0)
(32.3811 0.00167043 0)
(32.3122 0.00156787 0)
(32.2499 0.0014777 0)
(32.1934 0.00139603 0)
(32.1419 0.00132099 0)
(32.095 0.00125226 0)
(32.0521 0.00119005 0)
(32.0129 0.00113439 0)
(31.9768 0.00108471 0)
(31.9435 0.00104026 0)
(31.9127 0.00100011 0)
(31.8842 0.00096329 0)
(31.8578 0.000929007 0)
(31.8332 0.000896681 0)
(31.8103 0.000865918 0)
(31.789 0.000836454 0)
(31.7692 0.000808071 0)
(31.7508 0.000780532 0)
(31.7337 0.000753494 0)
(31.7177 0.000726514 0)
(31.7028 0.000698975 0)
(31.6891 0.000670126 0)
(31.6764 0.000639008 0)
(31.6647 0.000604414 0)
(31.654 0.000565001 0)
(31.6445 0.000518817 0)
(31.636 0.000464433 0)
(31.6286 0.000398074 0)
(31.6226 0.000317853 0)
(31.6179 0.000223069 0)
(31.6147 0.000104977 0)
(31.6132 -3.75268e-05 0)
(31.6136 -0.000208621 0)
(31.616 -0.000417281 0)
(31.6208 -0.000662307 0)
(31.6283 -0.000956711 0)
(31.6386 -0.00130943 0)
(31.6523 -0.00172683 0)
(31.6697 -0.00221651 0)
(31.691 -0.00279647 0)
(31.7171 -0.00347074 0)
(31.7481 -0.00426685 0)
(31.785 -0.0051856 0)
(31.8278 -0.00626846 0)
(31.878 -0.00752452 0)
(31.9259 -0.00875269 0)
(31.9676 -0.00984611 0)
(32.0118 -0.0109843 0)
(32.0587 -0.0122329 0)
(32.1083 -0.0135921 0)
(32.1606 -0.0150433 0)
(32.2155 -0.0166292 0)
(32.2732 -0.0183051 0)
(32.3332 -0.0201753 0)
(32.3965 -0.0221054 0)
(32.4615 -0.02435 0)
(32.5308 -0.0265707 0)
(32.6005 -0.0293439 0)
(32.6766 -0.0319125 0)
(32.7505 -0.0354764 0)
(32.8355 -0.0385606 0)
(32.9125 -0.0432863 0)
(33.0109 -0.0475886 0)
(33.0885 -0.0537598 0)
(33.2105 -0.0620498 0)
(33.2821 -0.0696042 0)
(33.4536 -0.0916878 0)
(33.5002 -0.107541 0)
(33.7822 -0.173579 0)
(33.7206 -0.304647 0)
(48.4097 0.161629 0)
(43.6523 0.0751444 0)
(40.5232 0.0382991 0)
(38.6392 0.0233677 0)
(37.4296 0.0159731 0)
(36.5946 0.0117771 0)
(35.9832 0.0092155 0)
(35.5114 0.0075175 0)
(35.1379 0.0062677 0)
(34.8358 0.00534721 0)
(34.5855 0.00465938 0)
(34.3748 0.00411024 0)
(34.1955 0.00366515 0)
(34.0411 0.00330992 0)
(33.9064 0.00301956 0)
(33.788 0.00277005 0)
(33.6834 0.00255144 0)
(33.5906 0.00236288 0)
(33.5076 0.0022029 0)
(33.4331 0.00206627 0)
(33.3657 0.00194626 0)
(33.3045 0.00183781 0)
(33.2489 0.00173842 0)
(33.1983 0.00164752 0)
(33.152 0.0015653 0)
(33.1096 0.00149171 0)
(33.0707 0.00142601 0)
(33.0348 0.0013672 0)
(33.0016 0.00131407 0)
(32.9709 0.00126538 0)
(32.9424 0.00122011 0)
(32.9159 0.00117749 0)
(32.8913 0.001137 0)
(32.8684 0.00109829 0)
(32.8471 0.00106105 0)
(32.8272 0.00102499 0)
(32.8087 0.000989648 0)
(32.7915 0.000954462 0)
(32.7755 0.000918643 0)
(32.7606 0.000881235 0)
(32.7469 0.000841022 0)
(32.7343 0.000796473 0)
(32.7227 0.000745886 0)
(32.7123 0.000686802 0)
(32.703 0.000617344 0)
(32.6949 0.000533001 0)
(32.6881 0.000431089 0)
(32.6828 0.000310385 0)
(32.679 0.000160842 0)
(32.6769 -1.96319e-05 0)
(32.6767 -0.000236364 0)
(32.6786 -0.000500203 0)
(32.6829 -0.000810766 0)
(32.6899 -0.00118333 0)
(32.6998 -0.00162884 0)
(32.713 -0.00215643 0)
(32.73 -0.00277525 0)
(32.751 -0.00350776 0)
(32.7768 -0.00435925 0)
(32.8074 -0.00536415 0)
(32.844 -0.00652373 0)
(32.8864 -0.00788943 0)
(32.9364 -0.00947236 0)
(32.984 -0.0110191 0)
(33.0255 -0.012397 0)
(33.0695 -0.0138326 0)
(33.1162 -0.0154029 0)
(33.1655 -0.017112 0)
(33.2176 -0.018936 0)
(33.2722 -0.020928 0)
(33.3297 -0.0230324 0)
(33.3894 -0.0253768 0)
(33.4523 -0.0277984 0)
(33.517 -0.0306042 0)
(33.5858 -0.0333884 0)
(33.6551 -0.036842 0)
(33.7305 -0.0400589 0)
(33.804 -0.0444808 0)
(33.8881 -0.0483173 0)
(33.9646 -0.054201 0)
(34.0617 -0.0593744 0)
(34.1384 -0.0673293 0)
(34.2583 -0.0765219 0)
(34.3287 -0.0875861 0)
(34.4947 -0.109878 0)
(34.5407 -0.134027 0)
(34.7984 -0.196013 0)
(34.7437 -0.320451 0)
(49.3063 0.175283 0)
(45.3914 0.0922484 0)
(42.2708 0.0503102 0)
(40.2609 0.0312127 0)
(38.9439 0.0213839 0)
(38.0286 0.015758 0)
(37.3565 0.0123117 0)
(36.8379 0.0100248 0)
(36.4271 0.00834746 0)
(36.0949 0.00711168 0)
(35.8199 0.00618701 0)
(35.5886 0.0054509 0)
(35.3919 0.0048555 0)
(35.2226 0.00437981 0)
(35.0751 0.00399095 0)
(34.9456 0.00365777 0)
(34.8313 0.00336681 0)
(34.7299 0.00311612 0)
(34.6393 0.00290324 0)
(34.5579 0.00272126 0)
(34.4844 0.00256155 0)
(34.4178 0.00241756 0)
(34.3573 0.00228595 0)
(34.3021 0.00216581 0)
(34.2517 0.00205723 0)
(34.2056 0.00196002 0)
(34.1632 0.00187319 0)
(34.1242 0.00179541 0)
(34.0881 0.00172514 0)
(34.0547 0.00166078 0)
(34.0237 0.00160102 0)
(33.995 0.00154485 0)
(33.9682 0.0014916 0)
(33.9433 0.00144078 0)
(33.9202 0.001392 0)
(33.8986 0.00134486 0)
(33.8785 0.00129876 0)
(33.8598 0.00125298 0)
(33.8424 0.00120653 0)
(33.8262 0.0011582 0)
(33.8112 0.00110645 0)
(33.7974 0.00104935 0)
(33.7848 0.00098478 0)
(33.7733 0.000909658 0)
(33.763 0.000821538 0)
(33.754 0.000715084 0)
(33.7463 0.000586613 0)
(33.7401 0.000434163 0)
(33.7355 0.000246298 0)
(33.7327 1.96016e-05 0)
(33.7318 -0.000252593 0)
(33.733 -0.000583315 0)
(33.7367 -0.00097348 0)
(33.743 -0.00144086 0)