/*--------------------------------*- C++ -*----------------------------------*\
| =========                 |                                                 |
| \\      /  F ield         | OpenFOAM: The Open Source CFD Toolbox           |
|  \\    /   O peration     | Version:  v1912                                 |
|   \\  /    A nd           | Website:  www.openfoam.com                      |
|    \\/     M anipulation  |                                                 |
\*---------------------------------------------------------------------------*/
FoamFile
{
    version     2.0;
    format      ascii;
    class       volVectorField;
    location    "10000";
    object      U;
}
// * * * * * * * * * * * * * * * * * * * * * * * * * * * * * * * * * * * * * //

dimensions      [0 1 -1 0 0 0 0];


internalField   nonuniform List<vector> 
20540
(
(33.5961 -0.000166692 0)
(45.1568 0.00425202 0)
(33.606 -0.000538104 0)
(45.1369 0.0126393 0)
(33.6323 -0.00098789 0)
(45.0873 0.0200839 0)
(33.6841 -0.00151931 0)
(44.9993 0.0265208 0)
(33.7741 -0.00214272 0)
(44.8643 0.0323709 0)
(33.9184 -0.00286681 0)
(44.6727 0.0379876 0)
(34.1366 -0.00369455 0)
(44.4145 0.0434127 0)
(34.4498 -0.00462089 0)
(44.0804 0.0485073 0)
(34.8775 -0.00562937 0)
(43.6635 0.05306 0)
(35.4341 -0.0066882 0)
(43.1615 0.0568088 0)
(36.1251 -0.007746 0)
(42.5795 0.0594542 0)
(36.9425 -0.00872885 0)
(41.933 0.0607078 0)
(37.8564 -0.00952832 0)
(41.2515 0.0603787 0)
(38.7937 -0.00995589 0)
(40.5792 0.0584771 0)
(39.6143 -0.00966656 0)
(39.9812 0.0551856 0)
(40.1045 -0.00864166 0)
(39.6331 0.0512014 0)
(40.0755 -0.00861561 0)
(39.8924 0.0505752 0)
(39.9675 -0.00883127 0)
(40.0324 0.050596 0)
(39.9995 -0.00845631 0)
(39.9743 0.0495055 0)
(40.0033 -0.00827323 0)
(39.976 0.0485192 0)
(40.001 -0.0079171 0)
(39.9797 0.0471375 0)
(40.0013 -0.00759762 0)
(39.9807 0.0455846 0)
(40.0015 -0.00716573 0)
(39.9823 0.0436883 0)
(40.0016 -0.00668049 0)
(39.9842 0.0414375 0)
(40.0017 -0.00611747 0)
(39.9863 0.0387629 0)
(40.0018 -0.00547518 0)
(39.9887 0.0355914 0)
(40.0019 -0.00475362 0)
(39.9913 0.0318404 0)
(40.0021 -0.00395302 0)
(39.994 0.0274113 0)
(40.0022 -0.00308361 0)
(39.9969 0.0221874 0)
(40.0024 -0.00214468 0)
(39.9995 0.0160025 0)
(40.0025 -0.00122924 0)
(40.0013 0.00947184 0)
(40.0025 -0.000399852 0)
(40.0022 0.00315867 0)
(40.0025 0.000406707 0)
(40.0022 -0.00312339 0)
(40.0025 0.00123716 0)
(40.0013 -0.00943752 0)
(40.0024 0.00213738 0)
(39.9995 -0.0158665 0)
(40.0022 0.00304805 0)
(39.997 -0.0218815 0)
(40.0021 0.00389367 0)
(39.9943 -0.0269927 0)
(40.002 0.00467412 0)
(39.9916 -0.03135 0)
(40.0018 0.00538131 0)
(39.9891 -0.0350617 0)
(40.0017 0.00601429 0)
(39.9867 -0.0382185 0)
(40.0016 0.0065718 0)
(39.9846 -0.0408969 0)
(40.0015 0.00706051 0)
(39.9828 -0.0431672 0)
(40.0014 0.00748156 0)
(39.9812 -0.0450834 0)
(40.0011 0.00784299 0)
(39.98 -0.0466956 0)
(40.0021 0.00812547 0)
(39.978 -0.0480405 0)
(40.0029 0.00844894 0)
(39.9733 -0.0492365 0)
(39.9809 0.00858675 0)
(39.9995 -0.0500231 0)
(39.9978 0.00889242 0)
(40.0175 -0.0509824 0)
(40.1457 0.00843124 0)
(39.6977 -0.0502809 0)
(39.9184 0.00920491 0)
(39.7512 -0.0531097 0)
(39.2675 0.00990066 0)
(40.2386 -0.0568169 0)
(38.406 0.00980382 0)
(40.8554 -0.0594276 0)
(37.4985 0.00921501 0)
(41.5138 -0.0606683 0)
(36.6452 0.00836717 0)
(42.1637 -0.0604087 0)
(35.8949 0.00738865 0)
(42.7698 -0.0587148 0)
(35.2668 0.00636339 0)
(43.3098 -0.0558007 0)
(34.7638 0.00535184 0)
(43.7728 -0.0519372 0)
(34.3786 0.00439562 0)
(44.1563 -0.047388 0)
(34.0966 0.00352001 0)
(44.4636 -0.0423767 0)
(33.8997 0.00273758 0)
(44.7013 -0.0370807 0)
(33.7689 0.00205165 0)
(44.8782 -0.0316068 0)
(33.6868 0.00145898 0)
(45.0032 -0.0258895 0)
(33.6391 0.000951592 0)
(45.0851 -0.0195856 0)
(33.6148 0.000520119 0)
(45.1313 -0.0123123 0)
(33.6055 0.000161562 0)
(45.15 -0.00414253 0)
(4.23135 0.00502304 0)
(3.19918 1.67439e-05 0)
(2.9564 3.21518e-06 0)
(2.8092 2.08025e-06 0)
(2.71113 1.40341e-06 0)
(2.6414 1.04397e-06 0)
(2.58866 8.23354e-07 0)
(2.54664 6.61979e-07 0)
(2.51285 5.35868e-07 0)
(2.48503 4.46922e-07 0)
(2.46156 3.87335e-07 0)
(2.44161 3.38379e-07 0)
(2.42446 -6.29212e-06 0)
(2.39585 -6.66024e-06 0)
(2.38307 3.19213e-07 0)
(2.37195 3.91218e-07 0)
(2.36213 3.7515e-07 0)
(2.35338 3.62206e-07 0)
(2.34552 3.69545e-07 0)
(2.33843 3.80482e-07 0)
(2.33201 3.43588e-07 0)
(2.32613 3.1773e-07 0)
(2.3208 3.45692e-07 0)
(2.31599 3.18005e-07 0)
(2.31152 2.88192e-07 0)
(2.30746 3.02628e-07 0)
(2.30372 2.93882e-07 0)
(2.30026 2.88394e-07 0)
(2.29707 2.80912e-07 0)
(2.2941 2.75623e-07 0)
(2.29136 2.69026e-07 0)
(2.2888 2.6358e-07 0)
(2.28644 2.57383e-07 0)
(2.28424 2.51822e-07 0)
(2.2822 2.45809e-07 0)
(2.2803 2.39935e-07 0)
(2.27855 2.34057e-07 0)
(2.27691 2.24826e-07 0)
(2.27541 2.37649e-07 0)
(2.27403 2.908e-07 0)
(2.27282 3.46392e-07 0)
(2.27179 8.1632e-06 0)
(2.27649 8.52183e-06 0)
(2.27582 2.05121e-07 0)
(2.27475 -2.85205e-07 0)
(2.27415 1.0462e-07 0)
(2.27365 -3.29155e-07 0)
(2.27315 -5.59854e-08 0)
(2.27323 2.75152e-07 0)
(2.27338 -6.73944e-07 0)
(2.27351 -3.7067e-07 0)
(2.27442 2.50955e-07 0)
(2.27555 -8.64265e-07 0)
(2.27675 -5.41753e-07 0)
(2.2789 1.39538e-07 0)
(2.28141 -1.21674e-06 0)
(2.28414 -9.39105e-07 0)
(2.28802 -1.21588e-07 0)
(2.2925 -1.66396e-06 0)
(2.29743 -1.54324e-06 0)
(2.30378 -5.7397e-07 0)
(2.31104 -1.63648e-06 0)
(2.31929 -3.27475e-06 0)
(2.32709 -5.80522e-06 0)
(2.3336 -4.97179e-06 0)
(2.34101 -3.28484e-06 0)
(2.34885 -7.34453e-06 0)
(2.35662 -6.87296e-06 0)
(2.36565 -4.31877e-06 0)
(2.37495 -9.80479e-06 0)
(2.38424 -9.90637e-06 0)
(2.39473 -7.15417e-06 0)
(2.40565 -1.35208e-05 0)
(2.41648 -1.36876e-05 0)
(2.42887 -1.05672e-05 0)
(2.44144 -1.52124e-05 0)
(2.45492 -2.06455e-05 0)
(2.4685 -2.00491e-05 0)
(2.48439 -2.8088e-05 0)
(2.49915 -2.63859e-05 0)
(2.51856 -4.57747e-05 0)
(2.53501 -3.43031e-05 0)
(2.56032 -8.50256e-05 0)
(2.58226 -5.88434e-05 0)
(2.61532 -0.000208909 0)
(2.67357 -0.000242849 0)
(2.70351 -0.00127499 0)
(2.70268 -0.0288655 0)
(12.7947 0.0151521 0)
(10.0816 0.000616808 0)
(9.33765 0.000201121 0)
(8.88751 0.000131877 0)
(8.58603 9.35007e-05 0)
(8.37105 7.0749e-05 0)
(8.2083 5.67296e-05 0)
(8.07848 4.70057e-05 0)
(7.97394 3.95601e-05 0)
(7.88781 3.4119e-05 0)
(7.81509 2.99408e-05 0)
(7.75325 2.65291e-05 0)
(7.70012 6.51468e-06 0)
(7.62293 3.52038e-06 0)
(7.58267 2.00864e-05 0)
(7.5476 1.87214e-05 0)
(7.51661 1.73112e-05 0)
(7.48899 1.61208e-05 0)
(7.46417 1.51636e-05 0)
(7.44178 1.4342e-05 0)
(7.42148 1.34758e-05 0)
(7.40292 1.26973e-05 0)
(7.38609 1.2115e-05 0)
(7.37084 1.14509e-05 0)
(7.35676 1.08479e-05 0)
(7.34391 1.04198e-05 0)
(7.33209 9.9841e-06 0)
(7.32116 9.59786e-06 0)
(7.31106 9.23689e-06 0)
(7.30168 8.90411e-06 0)
(7.293 8.58511e-06 0)
(7.28492 8.28359e-06 0)
(7.27745 7.99284e-06 0)
(7.27048 7.71586e-06 0)
(7.26404 7.44797e-06 0)
(7.25803 7.18948e-06 0)
(7.25247 6.93428e-06 0)
(7.24729 6.67262e-06 0)
(7.24252 6.45829e-06 0)
(7.23813 6.34322e-06 0)
(7.23422 6.21566e-06 0)
(7.23079 2.62671e-05 0)
(7.24079 2.68453e-05 0)
(7.23858 4.77138e-06 0)
(7.23537 2.87267e-06 0)
(7.23339 3.26384e-06 0)
(7.23174 1.36906e-06 0)
(7.2302 1.10227e-06 0)
(7.23017 7.96616e-07 0)
(7.23048 -3.11123e-06 0)
(7.23085 -4.02596e-06 0)
(7.2333 -4.47317e-06 0)
(7.23647 -9.94163e-06 0)
(7.24007 -1.20563e-05 0)
(7.24614 -1.37814e-05 0)
(7.25338 -2.15727e-05 0)
(7.26148 -2.57649e-05 0)
(7.27261 -2.94596e-05 0)
(7.28567 -4.04474e-05 0)
(7.30022 -4.82685e-05 0)
(7.3186 -5.50314e-05 0)
(7.33965 -6.89603e-05 0)
(7.36373 -8.6506e-05 0)
(7.38647 -0.000106061 0)
(7.40559 -0.000115043 0)
(7.42708 -0.000122403 0)
(7.44979 -0.000146676 0)
(7.47266 -0.000160241 0)
(7.49855 -0.000168796 0)
(7.52542 -0.00020075 0)
(7.55261 -0.000220351 0)
(7.58259 -0.000233258 0)
(7.61396 -0.000271878 0)
(7.64535 -0.00029837 0)
(7.68052 -0.000315985 0)
(7.71619 -0.000360644 0)
(7.75465 -0.000408107 0)
(7.79295 -0.000450747 0)
(7.83764 -0.000513362 0)
(7.87878 -0.000572253 0)
(7.93251 -0.000689657 0)
(7.97758 -0.000748938 0)
(8.0455 -0.00104718 0)
(8.10392 -0.001063 0)
(8.18646 -0.00220259 0)
(8.33142 -0.00226139 0)
(8.372 -0.00399103 0)
(8.94738 -0.141648 0)
(20.3271 0.0257622 0)
(16.7689 0.00213221 0)
(15.6873 0.000760573 0)
(15.0284 0.000500953 0)
(14.5818 0.000357903 0)
(14.2609 0.000271872 0)
(14.0166 0.00021854 0)
(13.821 0.000181504 0)
(13.6629 0.000153092 0)
(13.5323 0.000132255 0)
(13.4218 0.000116181 0)
(13.3277 0.000103006 0)
(13.2467 6.15229e-05 0)
(13.1805 5.2495e-05 0)
(13.1176 7.81358e-05 0)
(13.0622 7.23227e-05 0)
(13.013 6.68191e-05 0)
(12.969 6.21632e-05 0)
(12.9295 5.83267e-05 0)
(12.8936 5.50064e-05 0)
(12.8611 5.17683e-05 0)
(12.8315 4.88194e-05 0)
(12.8045 4.63522e-05 0)
(12.7799 4.386e-05 0)
(12.7574 4.16264e-05 0)
(12.7367 3.98445e-05 0)
(12.7177 3.81592e-05 0)
(12.7001 3.66528e-05 0)
(12.6838 3.52572e-05 0)
(12.6687 3.39623e-05 0)
(12.6546 3.27288e-05 0)
(12.6416 3.15593e-05 0)
(12.6295 3.04365e-05 0)
(12.6182 2.93662e-05 0)
(12.6078 2.83346e-05 0)
(12.598 2.73416e-05 0)
(12.589 2.63636e-05 0)
(12.5806 2.5378e-05 0)
(12.5728 2.44724e-05 0)
(12.5656 2.37504e-05 0)
(12.559 2.29818e-05 0)
(12.5528 6.0347e-05 0)
(12.5462 6.0766e-05 0)
(12.5416 1.7995e-05 0)
(12.5375 1.3151e-05 0)
(12.534 1.27026e-05 0)
(12.5313 7.53798e-06 0)
(12.5296 5.23035e-06 0)
(12.5287 2.45138e-06 0)
(12.5289 -7.85927e-06 0)
(12.5305 -1.28979e-05 0)
(12.5333 -1.76302e-05 0)
(12.5377 -3.2828e-05 0)
(12.544 -4.25501e-05 0)
(12.5521 -5.25228e-05 0)
(12.5626 -7.53252e-05 0)
(12.5755 -9.27597e-05 0)
(12.5911 -0.000110808 0)
(12.61 -0.000144469 0)
(12.6324 -0.00017471 0)
(12.6586 -0.000205438 0)
(12.689 -0.000252625 0)
(12.7247 -0.00031007 0)
(12.7588 -0.000371263 0)
(12.7884 -0.000409481 0)
(12.8196 -0.00044502 0)
(12.8528 -0.000515481 0)
(12.8882 -0.000568013 0)
(12.9251 -0.000612591 0)
(12.9643 -0.000703049 0)
(13.0057 -0.000773439 0)
(13.0486 -0.000835314 0)
(13.094 -0.000946191 0)
(13.1412 -0.00104104 0)
(13.1912 -0.00112013 0)
(13.2422 -0.00125912 0)
(13.2983 -0.00140073 0)
(13.3531 -0.00155535 0)
(13.417 -0.00173617 0)
(13.4755 -0.00195019 0)
(13.5514 -0.00226233 0)
(13.6148 -0.00250305 0)
(13.7079 -0.00329131 0)
(13.7888 -0.00334285 0)
(13.8955 -0.00648767 0)
(14.0838 -0.00549523 0)
(14.1077 -0.0176975 0)
(15.046 -0.18501 0)
(25.207 0.0354812 0)
(21.2144 0.00432465 0)
(19.9569 0.00162327 0)
(19.2211 0.00105992 0)
(18.7294 0.000758904 0)
(18.3786 0.000577887 0)
(18.1129 0.000465551 0)
(17.901 0.000387571 0)
(17.73 0.000327685 0)
(17.5891 0.000283623 0)
(17.47 0.000249574 0)
(17.3686 0.000221556 0)
(17.2814 0.000186802 0)
(17.2229 0.00016928 0)
(17.1554 0.000166861 0)
(17.0956 0.000153521 0)
(17.0424 0.000141766 0)
(16.9949 0.000131874 0)
(16.9521 0.000123585 0)
(16.9133 0.000116375 0)
(16.8781 0.000109742 0)
(16.846 0.000103619 0)
(16.8168 9.80711e-05 0)
(16.7901 9.29396e-05 0)
(16.7658 8.83641e-05 0)
(16.7434 8.43901e-05 0)
(16.7227 8.08188e-05 0)
(16.7036 7.7605e-05 0)
(16.6859 7.46486e-05 0)
(16.6695 7.18896e-05 0)
(16.6543 6.9275e-05 0)
(16.6401 6.67861e-05 0)
(16.627 6.44041e-05 0)
(16.6147 6.21269e-05 0)
(16.6033 5.99366e-05 0)
(16.5928 5.78251e-05 0)
(16.5829 5.57478e-05 0)
(16.5738 5.36668e-05 0)
(16.5653 5.15959e-05 0)
(16.5574 4.94574e-05 0)
(16.5501 4.70758e-05 0)
(16.5433 6.00218e-05 0)
(16.5299 5.7919e-05 0)
(16.5244 3.73704e-05 0)
(16.5202 3.13383e-05 0)
(16.5164 2.68783e-05 0)
(16.5135 1.95186e-05 0)
(16.5118 1.20167e-05 0)
(16.5107 2.85826e-06 0)
(16.5109 -1.1213e-05 0)
(16.5129 -2.50484e-05 0)
(16.5157 -4.11919e-05 0)
(16.5205 -6.46505e-05 0)
(16.5275 -8.90117e-05 0)
(16.536 -0.000117274 0)
(16.5471 -0.000155471 0)
(16.5613 -0.000196387 0)
(16.5778 -0.000243759 0)
(16.5979 -0.000304411 0)
(16.6221 -0.000371889 0)
(16.65 -0.000448172 0)
(16.6823 -0.00054254 0)
(16.7206 -0.000654392 0)
(16.7574 -0.000765607 0)
(16.7896 -0.00085601 0)
(16.8229 -0.000950506 0)
(16.8584 -0.0010684 0)
(16.8967 -0.00118667 0)
(16.9361 -0.00130794 0)
(16.9779 -0.00145806 0)
(17.0225 -0.00160911 0)
(17.0682 -0.00176847 0)
(17.1168 -0.00195644 0)
(17.1674 -0.00216004 0)
(17.2207 -0.00236068 0)
(17.2749 -0.00262139 0)
(17.3348 -0.00288547 0)
(17.3932 -0.00321776 0)
(17.4612 -0.00355602 0)
(17.5234 -0.00400443 0)
(17.6036 -0.00456712 0)
(17.6713 -0.00508506 0)
(17.7678 -0.00653104 0)
(17.8557 -0.00655015 0)
(17.959 -0.0125863 0)
(18.1642 -0.00866938 0)
(18.161 -0.0416939 0)
(19.0745 -0.196719 0)
(28.3657 0.045303 0)
(24.0063 0.00700652 0)
(22.5657 0.00270908 0)
(21.755 0.00174497 0)
(21.2228 0.00124491 0)
(20.8473 0.000946271 0)
(20.5652 0.000761386 0)
(20.3416 0.000633485 0)
(20.162 0.000535531 0)
(20.0145 0.000463395 0)
(19.8903 0.000407725 0)
(19.7848 0.000361942 0)
(19.6942 0.000324168 0)
(19.6238 0.000295272 0)
(19.5543 0.000271418 0)
(19.4928 0.000249347 0)
(19.4382 0.000230256 0)
(19.3894 0.000214172 0)
(19.3456 0.000200634 0)
(19.3059 0.000188861 0)
(19.2699 0.000178178 0)
(19.2371 0.000168291 0)
(19.2073 0.000159188 0)
(19.1801 0.000150921 0)
(19.1552 0.000143548 0)
(19.1323 0.000137029 0)
(19.1113 0.00013123 0)
(19.0918 0.000126005 0)
(19.0738 0.000121209 0)
(19.0571 0.00011673 0)
(19.0416 0.000112493 0)
(19.0271 0.000108457 0)
(19.0137 0.000104598 0)
(19.0013 0.000100906 0)
(18.9897 9.73558e-05 0)
(18.9789 9.39311e-05 0)
(18.9689 9.05628e-05 0)
(18.9596 8.71959e-05 0)
(18.951 8.37819e-05 0)
(18.943 8.00831e-05 0)
(18.9357 7.61639e-05 0)
(18.9289 7.33801e-05 0)
(18.9192 6.81612e-05 0)
(18.9137 6.01012e-05 0)
(18.9092 5.24851e-05 0)
(18.9054 4.39625e-05 0)
(18.9024 3.33111e-05 0)
(18.9005 2.02256e-05 0)
(18.8995 4.15911e-06 0)
(18.8997 -1.56692e-05 0)
(18.9015 -3.91825e-05 0)
(18.9045 -6.77027e-05 0)
(18.9093 -0.000102358 0)
(18.9162 -0.000143041 0)
(18.925 -0.00019148 0)
(18.9364 -0.000249481 0)
(18.9506 -0.00031696 0)
(18.9676 -0.000397102 0)
(18.9882 -0.000491132 0)
(19.0127 -0.000601076 0)
(19.0413 -0.000728484 0)
(19.0744 -0.000879194 0)
(19.1134 -0.0010559 0)
(19.1507 -0.00122849 0)
(19.1832 -0.00137774 0)
(19.2172 -0.00153731 0)
(19.2535 -0.0017166 0)
(19.2921 -0.00190798 0)
(19.3325 -0.00211356 0)
(19.3751 -0.00234192 0)
(19.4202 -0.00258301 0)
(19.4669 -0.00285006 0)
(19.5164 -0.00313649 0)
(19.5677 -0.00346245 0)
(19.6222 -0.00379409 0)
(19.6774 -0.00420546 0)
(19.7382 -0.00461001 0)
(19.7975 -0.00514725 0)
(19.8666 -0.00566199 0)
(19.9298 -0.0063859 0)
(20.0108 -0.00722393 0)
(20.0799 -0.00806513 0)
(20.176 -0.0102256 0)
(20.2658 -0.0102456 0)
(20.3664 -0.0192013 0)
(20.5641 -0.0133753 0)
(20.5894 -0.0620259 0)
(21.2531 -0.202013 0)
(30.7155 0.0561979 0)
(26.0711 0.0105343 0)
(24.4371 0.00416068 0)
(23.5394 0.00263329 0)
(22.9578 0.00186444 0)
(22.5508 0.00141042 0)
(22.247 0.00113074 0)
(22.0077 0.000938377 0)
(21.816 0.000791866 0)
(21.6591 0.000684048 0)
(21.5274 0.0006011 0)
(21.4158 0.000533146 0)
(21.32 0.000479658 0)
(21.2398 0.000436312 0)
(21.1668 0.00039837 0)
(21.1023 0.000365841 0)
(21.0451 0.000337764 0)
(20.9941 0.000314044 0)
(20.9482 0.00029406 0)
(20.9068 0.000276704 0)
(20.8692 0.000261004 0)
(20.8351 0.000246495 0)
(20.804 0.000233133 0)
(20.7756 0.000221013 0)
(20.7497 0.000210192 0)
(20.7259 0.000200612 0)
(20.704 0.000192093 0)
(20.6837 0.000184422 0)
(20.665 0.000177388 0)
(20.6476 0.000170826 0)
(20.6315 0.000164625 0)
(20.6165 0.000158722 0)
(20.6026 0.000153081 0)
(20.5897 0.000147683 0)
(20.5776 0.000142495 0)
(20.5665 0.000137489 0)
(20.5561 0.000132566 0)
(20.5464 0.000127651 0)
(20.5375 0.000122648 0)
(20.5292 0.000117221 0)
(20.5215 0.00011157 0)
(20.5145 0.000104407 0)
(20.507 9.63055e-05 0)
(20.5014 8.78892e-05 0)
(20.4966 7.74133e-05 0)
(20.4926 6.4757e-05 0)
(20.4895 4.937e-05 0)
(20.4873 3.02137e-05 0)
(20.4862 6.60706e-06 0)
(20.4864 -2.17318e-05 0)
(20.488 -5.60641e-05 0)
(20.4911 -9.79535e-05 0)
(20.496 -0.000147671 0)
(20.5028 -0.000206957 0)
(20.5119 -0.000277854 0)
(20.5235 -0.000361515 0)
(20.5379 -0.000459734 0)
(20.5553 -0.000576804 0)
(20.5764 -0.000712599 0)
(20.6013 -0.000872389 0)
(20.6306 -0.00105812 0)
(20.6645 -0.00127692 0)
(20.7043 -0.00153265 0)
(20.7423 -0.00178199 0)
(20.7753 -0.00199997 0)
(20.8102 -0.00223262 0)
(20.8472 -0.00249058 0)
(20.8865 -0.00276802 0)
(20.9278 -0.00306825 0)
(20.9714 -0.00339715 0)
(21.0173 -0.00374526 0)
(21.065 -0.00413502 0)
(21.1155 -0.00454588 0)
(21.1676 -0.00501771 0)
(21.2233 -0.0054972 0)
(21.2795 -0.00609409 0)
(21.3414 -0.006668 0)
(21.4017 -0.00745 0)
(21.4719 -0.0081734 0)
(21.536 -0.00922796 0)
(21.6178 -0.0103864 0)
(21.6876 -0.0116221 0)
(21.7844 -0.014577 0)
(21.8726 -0.0147245 0)
(21.9789 -0.026589 0)
(22.1479 -0.0201415 0)
(22.2447 -0.0786603 0)
(22.6171 -0.211688 0)
(32.653 0.0681924 0)
(27.819 0.0151722 0)
(25.9922 0.00614698 0)
(25.0009 0.00382962 0)
(24.3649 0.0026905 0)
(23.9226 0.00202509 0)
(23.5942 0.00161707 0)
(23.3366 0.00133804 0)
(23.131 0.00112678 0)
(22.9631 0.000971445 0)
(22.8226 0.000852328 0)
(22.7037 0.000755191 0)
(22.6018 0.000677924 0)
(22.5144 0.000615655 0)
(22.437 0.000562433 0)
(22.3687 0.000516364 0)
(22.3082 0.00047657 0)
(22.2544 0.000442871 0)
(22.206 0.000414465 0)
(22.1623 0.000389833 0)
(22.1227 0.000367597 0)
(22.0867 0.000347088 0)
(22.054 0.000328233 0)
(22.0241 0.000311118 0)
(21.9968 0.000295826 0)
(21.9718 0.000282291 0)
(21.9488 0.000270248 0)
(21.9275 0.000259409 0)
(21.9078 0.000249481 0)
(21.8896 0.000240231 0)
(21.8726 0.000231501 0)
(21.8569 0.000223197 0)
(21.8423 0.000215267 0)
(21.8287 0.000207681 0)
(21.8161 0.000200392 0)
(21.8043 0.000193358 0)
(21.7934 0.000186444 0)
(21.7833 0.000179549 0)
(21.7738 0.000172522 0)
(21.7651 0.000164939 0)
(21.7571 0.000157026 0)
(21.7498 0.000147927 0)
(21.7428 0.000136634 0)
(21.7369 0.000123984 0)
(21.7318 0.000109465 0)
(21.7275 9.17632e-05 0)
(21.7242 7.02053e-05 0)
(21.7218 4.35523e-05 0)
(21.7206 1.06717e-05 0)
(21.7206 -2.87969e-05 0)
(21.7221 -7.65486e-05 0)
(21.7252 -0.000134828 0)
(21.73 -0.000203904 0)
(21.7369 -0.000286349 0)
(21.7461 -0.000384973 0)
(21.7578 -0.000501345 0)
(21.7725 -0.000637907 0)
(21.7902 -0.000800696 0)
(21.8117 -0.000989349 0)
(21.837 -0.00121147 0)
(21.867 -0.00146954 0)
(21.9016 -0.00177373 0)
(21.9421 -0.00212854 0)
(21.9808 -0.00247477 0)
(22.0144 -0.00277875 0)
(22.05 -0.0031014 0)
(22.0878 -0.00345865 0)
(22.1277 -0.00384357 0)
(22.1699 -0.00426006 0)
(22.2142 -0.00471589 0)
(22.2609 -0.00519746 0)
(22.3095 -0.00573832 0)
(22.361 -0.00630506 0)
(22.4139 -0.00695867 0)
(22.4705 -0.00761885 0)
(22.5276 -0.00844619 0)
(22.5904 -0.0092295 0)
(22.6515 -0.0103132 0)
(22.7225 -0.0112919 0)
(22.7873 -0.0127525 0)
(22.8699 -0.0142909 0)
(22.9398 -0.016031 0)
(23.0381 -0.0198459 0)
(23.1218 -0.0204075 0)
(23.2391 -0.034866 0)
(23.3702 -0.0297093 0)
(23.5424 -0.0929564 0)
(23.6948 -0.226612 0)
(34.3456 0.0811526 0)
(29.4243 0.0211104 0)
(27.4094 0.0088256 0)
(26.3184 0.00543063 0)
(25.6232 0.00378829 0)
(25.1422 0.00283787 0)
(24.7864 0.00225727 0)
(24.5086 0.00186229 0)
(24.2874 0.001565 0)
(24.1073 0.00134656 0)
(23.9568 0.00117955 0)
(23.8297 0.00104397 0)
(23.721 0.000935419 0)
(23.6271 0.000848334 0)
(23.5448 0.000775011 0)
(23.4722 0.000711253 0)
(23.408 0.00065615 0)
(23.3508 0.00060941 0)
(23.2995 0.000569992 0)
(23.2533 0.000535859 0)
(23.2113 0.000505114 0)
(23.1733 0.000476818 0)
(23.1386 0.000450841 0)
(23.1071 0.000427256 0)
(23.0782 0.000406169 0)
(23.0518 0.000387502 0)
(23.0274 0.000370887 0)
(23.005 0.00035594 0)
(22.9842 0.000342262 0)
(22.9649 0.000329535 0)
(22.947 0.000317539 0)
(22.9304 0.00030614 0)
(22.915 0.000295262 0)
(22.9007 0.000284861 0)
(22.8874 0.000274872 0)
(22.875 0.000265235 0)
(22.8634 0.000255768 0)
(22.8527 0.000246336 0)
(22.8428 0.000236719 0)
(22.8336 0.000226397 0)
(22.8252 0.000215567 0)
(22.8174 0.000203938 0)
(22.8103 0.000188765 0)
(22.8041 0.000170872 0)
(22.7986 0.000151152 0)
(22.7941 0.000127115 0)
(22.7904 9.78184e-05 0)
(22.7878 6.17822e-05 0)
(22.7864 1.73299e-05 0)
(22.7862 -3.60845e-05 0)
(22.7875 -0.000100597 0)
(22.7905 -0.000179295 0)
(22.7953 -0.000272585 0)
(22.8022 -0.000383932 0)
(22.8114 -0.000517083 0)
(22.8232 -0.000674295 0)
(22.838 -0.000858659 0)
(22.856 -0.00107834 0)
(22.8777 -0.0013329 0)
(22.9034 -0.00163268 0)
(22.9338 -0.00198069 0)
(22.9689 -0.00239101 0)
(23.0101 -0.00286875 0)
(23.0493 -0.00333528 0)
(23.0835 -0.00374639 0)
(23.1196 -0.0041805 0)
(23.158 -0.00466063 0)
(23.1985 -0.00517881 0)
(23.2413 -0.00573864 0)
(23.2862 -0.00635143 0)
(23.3336 -0.00699803 0)
(23.3829 -0.00772478 0)
(23.435 -0.00848335 0)
(23.4885 -0.00936091 0)
(23.5458 -0.0102423 0)
(23.6035 -0.0113511 0)
(23.667 -0.0123909 0)
(23.7286 -0.013841 0)
(23.8001 -0.01513 0)
(23.8654 -0.0170839 0)
(23.9485 -0.0190617 0)
(24.0178 -0.0214565 0)
(24.1181 -0.0261326 0)
(24.1955 -0.0275921 0)
(24.3253 -0.0439476 0)
(24.4203 -0.0424781 0)
(24.6469 -0.105899 0)
(24.6735 -0.243112 0)
(35.8629 0.0949066 0)
(30.967 0.0285384 0)
(28.7733 0.0123865 0)
(27.5759 0.00755796 0)
(26.816 0.00523971 0)
(26.2918 0.00390817 0)
(25.9056 0.00309702 0)
(25.6051 0.00254773 0)
(25.3664 0.00213662 0)
(25.1724 0.00183474 0)
(25.0107 0.00160454 0)
(24.8744 0.00141844 0)
(24.758 0.00126924 0)
(24.6573 0.00114963 0)
(24.5694 0.00104958 0)
(24.492 0.000962737 0)
(24.4235 0.000887692 0)
(24.3626 0.000823967 0)
(24.3081 0.0007702 0)
(24.2589 0.000723694 0)
(24.2143 0.000681906 0)
(24.1739 0.000643532 0)
(24.1372 0.000608348 0)
(24.1037 0.000576411 0)
(24.0731 0.000547844 0)
(24.045 0.000522541 0)
(24.0192 0.000500015 0)
(23.9954 0.000479758 0)
(23.9734 0.000461239 0)
(23.953 0.000444029 0)
(23.9341 0.000427827 0)
(23.9165 0.00041245 0)
(23.9002 0.000397789 0)
(23.885 0.000383781 0)
(23.8709 0.000370336 0)
(23.8578 0.000357371 0)
(23.8455 0.000344645 0)
(23.8342 0.000331984 0)
(23.8237 0.000319075 0)
(23.814 0.000305287 0)
(23.805 0.000290755 0)
(23.7968 0.000275441 0)
(23.7893 0.000255464 0)
(23.7826 0.000231551 0)
(23.7768 0.000205318 0)
(23.7719 0.000173387 0)
(23.7679 0.000134508 0)
(23.765 8.68357e-05 0)
(23.7633 2.80732e-05 0)
(23.7629 -4.25732e-05 0)
(23.764 -0.000127812 0)
(23.7668 -0.000231721 0)
(23.7715 -0.000354917 0)
(23.7783 -0.000501959 0)
(23.7875 -0.000677682 0)
(23.7993 -0.000885261 0)
(23.8141 -0.00112858 0)
(23.8322 -0.00141835 0)
(23.8541 -0.0017541 0)
(23.88 -0.00214956 0)
(23.9107 -0.00260823 0)
(23.9462 -0.00314902 0)
(23.9878 -0.00377763 0)
(24.0274 -0.00439181 0)
(24.0619 -0.00493475 0)
(24.0984 -0.00550574 0)
(24.1371 -0.00613616 0)
(24.1781 -0.00681768 0)
(24.2213 -0.00755257 0)
(24.2667 -0.00835712 0)
(24.3145 -0.00920554 0)
(24.3641 -0.0101586 0)
(24.4167 -0.0111509 0)
(24.4706 -0.0123008 0)
(24.5283 -0.0134511 0)
(24.5864 -0.0148994 0)
(24.6502 -0.0162509 0)
(24.7122 -0.0181406 0)
(24.7839 -0.0198031 0)
(24.8493 -0.022352 0)
(24.9325 -0.0248281 0)
(25.0009 -0.0280714 0)
(25.103 -0.0335556 0)
(25.174 -0.0365351 0)
(25.3139 -0.0539852 0)
(25.3817 -0.0582825 0)
(25.6337 -0.119211 0)
(25.6058 -0.258204 0)
(37.2259 0.109161 0)
(32.4844 0.0376417 0)
(30.129 0.0170699 0)
(28.8189 0.0103762 0)
(27.9876 0.00715754 0)
(27.4153 0.00531835 0)
(26.9946 0.00419984 0)
(26.6683 0.00344528 0)
(26.4096 0.00288358 0)
(26.1997 0.00247129 0)
(26.0253 0.00215757 0)
(25.8783 0.00190496 0)
(25.7531 0.00170255 0)
(25.6449 0.00154021 0)
(25.5505 0.00140485 0)
(25.4675 0.0012878 0)
(25.3942 0.00118671 0)
(25.3291 0.00110082 0)
(25.2707 0.00102832 0)
(25.2182 0.000965664 0)
(25.1707 0.000909503 0)
(25.1275 0.000858052 0)
(25.0883 0.000810942 0)
(25.0526 0.000768204 0)
(25.02 0.000729964 0)
(24.9901 0.000696071 0)
(24.9627 0.000665893 0)
(24.9373 0.000638759 0)
(24.9139 0.000613974 0)
(24.8922 0.000590971 0)
(24.8721 0.000569347 0)
(24.8534 0.000548849 0)
(24.836 0.000529328 0)
(24.8199 0.000510692 0)
(24.8049 0.000492819 0)
(24.7909 0.000475597 0)
(24.778 0.000458714 0)
(24.7659 0.000441941 0)
(24.7547 0.000424854 0)
(24.7443 0.000406691 0)
(24.7348 0.000387479 0)
(24.726 0.000367216 0)
(24.718 0.000341286 0)
(24.7109 0.00031023 0)
(24.7046 0.000275895 0)
(24.6993 0.000234189 0)
(24.6949 0.000183497 0)
(24.6917 0.000121491 0)
(24.6896 4.51544e-05 0)
(24.689 -4.66693e-05 0)
(24.6898 -0.00015737 0)
(24.6924 -0.000292178 0)
(24.6968 -0.000452079 0)
(24.7035 -0.000642904 0)
(24.7125 -0.000870748 0)
(24.7242 -0.00114004 0)
(24.739 -0.00145558 0)
(24.7571 -0.00183105 0)
(24.779 -0.00226617 0)
(24.805 -0.00277868 0)
(24.8358 -0.00337259 0)
(24.8714 -0.00407266 0)
(24.9132 -0.00488531 0)
(24.953 -0.0056795 0)
(24.9877 -0.00638337 0)
(25.0244 -0.00712145 0)
(25.0633 -0.0079346 0)
(25.1045 -0.00881494 0)
(25.1479 -0.00976235 0)
(25.1935 -0.0107996 0)
(25.2415 -0.0118932 0)
(25.2914 -0.0131202 0)
(25.3441 -0.0143954 0)
(25.3982 -0.015874 0)
(25.456 -0.01735 0)
(25.5143 -0.0192047 0)
(25.5781 -0.0209336 0)
(25.6401 -0.0233469 0)
(25.7117 -0.0254574 0)
(25.7769 -0.0287199 0)
(25.8601 -0.0317598 0)
(25.9272 -0.0360801 0)
(26.0303 -0.0423121 0)
(26.0962 -0.0474487 0)
(26.2413 -0.0653972 0)
(26.293 -0.0766992 0)
(26.5459 -0.134317 0)
(26.5024 -0.27129 0)
(38.426 0.123422 0)
(33.9897 0.0485493 0)
(31.5027 0.0231645 0)
(30.0755 0.014103 0)
(29.166 0.00969486 0)
(28.5397 0.00718141 0)
(28.0799 0.00565339 0)
(27.7242 0.00462552 0)
(27.4424 0.00386415 0)
(27.2142 0.00330538 0)
(27.0249 0.00288086 0)
(26.8656 0.00254034 0)
(26.7301 0.00226775 0)
(26.6131 0.00204896 0)
(26.5112 0.00186693 0)
(26.4217 0.00171015 0)
(26.3427 0.00157489 0)
(26.2726 0.00145992 0)
(26.2099 0.00136281 0)
(26.1534 0.00127895 0)
(26.1024 0.00120397 0)
(26.0561 0.00113545 0)
(26.014 0.00107282 0)
(25.9758 0.00101603 0)
(25.9408 0.000965224 0)
(25.9088 0.000920155 0)
(25.8794 0.000880014 0)
(25.8522 0.000843927 0)
(25.8272 0.00081099 0)
(25.8039 0.000780461 0)
(25.7824 0.000751804 0)
(25.7624 0.000724681 0)
(25.7439 0.000698884 0)
(25.7266 0.000674283 0)
(25.7106 0.000650715 0)
(25.6956 0.000628029 0)
(25.6818 0.000605822 0)
(25.6689 0.000583797 0)
(25.6569 0.000561393 0)
(25.6458 0.000537699 0)
(25.6355 0.000512572 0)
(25.6261 0.000485926 0)
(25.6175 0.000452614 0)
(25.6098 0.00041287 0)
(25.603 0.000368473 0)
(25.5971 0.000314693 0)
(25.5923 0.000249468 0)
(25.5886 0.000169865 0)
(25.5862 7.20306e-05 0)
(25.5851 -4.57278e-05 0)
(25.5856 -0.000187583 0)
(25.5878 -0.000360097 0)
(25.592 -0.000564861 0)
(25.5984 -0.000809161 0)
(25.6072 -0.00110053 0)
(25.6187 -0.0014451 0)
(25.6333 -0.00184871 0)
(25.6512 -0.00232853 0)
(25.673 -0.00288471 0)
(25.6989 -0.00353976 0)
(25.7296 -0.00429822 0)
(25.7652 -0.00519185 0)
(25.807 -0.00622812 0)
(25.8468 -0.00724076 0)
(25.8815 -0.00813995 0)
(25.9182 -0.00908125 0)
(25.9571 -0.0101156 0)
(25.9983 -0.0112369 0)
(26.0418 -0.0124413 0)
(26.0873 -0.0137595 0)
(26.1353 -0.0151498 0)
(26.1852 -0.0167066 0)
(26.2378 -0.0183235 0)
(26.2919 -0.0201965 0)
(26.3496 -0.0220661 0)
(26.4077 -0.0244047 0)
(26.4712 -0.0265898 0)
(26.5331 -0.0296231 0)
(26.6042 -0.0322712 0)
(26.669 -0.0363817 0)
(26.7516 -0.0400705 0)
(26.8177 -0.0457071 0)
(26.9204 -0.0526848 0)
(26.9831 -0.0605028 0)
(27.128 -0.0787287 0)
(27.1727 -0.0973719 0)
(27.4114 -0.151852 0)
(27.3678 -0.283197 0)
(39.4328 0.136933 0)
(35.4769 0.0612423 0)
(32.9085 0.0309898 0)
(31.3649 0.0190155 0)
(30.371 0.0130546 0)
(29.6847 0.00964952 0)
(29.1806 0.0075767 0)
(28.7912 0.00618474 0)
(28.483 0.00515818 0)
(28.2335 0.00440458 0)
(28.0268 0.00383258 0)
(27.8531 0.00337532 0)
(27.7054 0.00300964 0)
(27.5781 0.00271592 0)
(27.4674 0.00247198 0)
(27.3702 0.00226261 0)
(27.2845 0.00208223 0)
(27.2085 0.00192888 0)
(27.1405 0.00179924 0)
(27.0794 0.00168737 0)
(27.0242 0.00158756 0)
(26.9742 0.00149661 0)
(26.9288 0.00141362 0)
(26.8875 0.00133846 0)
(26.8497 0.00127121 0)
(26.8152 0.0012115 0)
(26.7834 0.00115831 0)
(26.7541 0.00111048 0)
(26.7271 0.00106686 0)
(26.7021 0.00102648 0)
(26.6789 0.00098864 0)
(26.6573 0.000952886 0)
(26.6373 0.000918931 0)
(26.6188 0.000886597 0)
(26.6015 0.000855659 0)
(26.5854 0.000825918 0)
(26.5704 0.000796859 0)
(26.5565 0.000768097 0)
(26.5436 0.000738895 0)
(26.5316 0.000708181 0)
(26.5205 0.000675568 0)
(26.5103 0.000640802 0)
(26.501 0.000598307 0)
(26.4926 0.000547875 0)
(26.4851 0.000491002 0)
(26.4786 0.000422328 0)
(26.4732 0.000339247 0)
(26.469 0.000238091 0)
(26.466 0.000114031 0)
(26.4645 -3.53863e-05 0)
(26.4646 -0.000215234 0)
(26.4664 -0.000433608 0)
(26.4701 -0.000692994 0)
(26.4761 -0.00100237 0)
(26.4846 -0.00137089 0)
(26.4957 -0.00180692 0)
(26.51 -0.00231753 0)
(26.5276 -0.00292389 0)
(26.5492 -0.00362697 0)
(26.5747 -0.00445486 0)
(26.6052 -0.00541277 0)
(26.6406 -0.00654068 0)
(26.6821 -0.0078477 0)
(26.7217 -0.00912437 0)
(26.7562 -0.0102593 0)
(26.7927 -0.0114469 0)
(26.8315 -0.0127482 0)
(26.8725 -0.01416 0)
(26.9157 -0.0156742 0)
(26.9611 -0.0173303 0)
(27.0088 -0.0190781 0)
(27.0584 -0.0210306 0)
(27.1108 -0.0230589 0)
(27.1646 -0.0254028 0)
(27.2218 -0.0277468 0)
(27.2796 -0.0306589 0)
(27.3425 -0.0333949 0)
(27.404 -0.0371572 0)
(27.4743 -0.0404537 0)
(27.5387 -0.0455556 0)
(27.6201 -0.0500167 0)
(27.6854 -0.0571886 0)
(27.7862 -0.0650209 0)
(27.8476 -0.075859 0)
(27.9878 -0.0945033 0)
(28.0309 -0.120125 0)
(28.2488 -0.171926 0)
(28.2087 -0.29479 0)
(40.1997 0.148674 0)
(36.9187 0.0754224 0)
(34.3486 0.0408504 0)
(32.6996 0.0254516 0)
(31.6176 0.0175003 0)
(30.8656 0.0129248 0)
(30.312 0.0101297 0)
(29.8843 0.00825318 0)
(29.5458 0.00687428 0)
(29.2716 0.00586123 0)
(29.0448 0.00509239 0)
(28.8543 0.00447962 0)
(28.6924 0.00398997 0)
(28.553 0.00359637 0)
(28.4317 0.0032699 0)
(28.3255 0.00299052 0)
(28.2318 0.00275024 0)
(28.1488 0.00254596 0)
(28.0746 0.00237308 0)
(28.0079 0.00222391 0)
(27.9478 0.00209113 0)
(27.8933 0.00197049 0)
(27.8438 0.00186062 0)
(27.7988 0.00176126 0)
(27.7577 0.00167235 0)
(27.7201 0.00159335 0)
(27.6856 0.00152293 0)
(27.6537 0.0014596 0)
(27.6243 0.00140187 0)
(27.5971 0.0013485 0)
(27.5719 0.00129857 0)
(27.5485 0.00125148 0)
(27.5268 0.00120685 0)
(27.5066 0.00116441 0)
(27.4878 0.00112388 0)
(27.4703 0.00108497 0)
(27.454 0.00104704 0)
(27.4389 0.00100958 0)
(27.4248 0.000971647 0)
(27.4117 0.000931978 0)
(27.3996 0.000889863 0)
(27.3885 0.000844792 0)
(27.3783 0.000790826 0)
(27.369 0.000727177 0)
(27.3608 0.000654849 0)
(27.3535 0.000567812 0)
(27.3474 0.000462819 0)
(27.3425 0.000335314 0)
(27.3389 0.000179331 0)
(27.3368 -8.61369e-06 0)
(27.3362 -0.000234655 0)