/*--------------------------------*- C++ -*----------------------------------*\
| =========                 |                                                 |
| \\      /  F ield         | OpenFOAM: The Open Source CFD Toolbox           |
|  \\    /   O peration     | Version:  v1912                                 |
|   \\  /    A nd           | Website:  www.openfoam.com                      |
|    \\/     M anipulation  |                                                 |
\*---------------------------------------------------------------------------*/
FoamFile
{
    version     2.0;
    format      ascii;
    class       volVectorField;
    location    "10000";
    object      U;
}
// * * * * * * * * * * * * * * * * * * * * * * * * * * * * * * * * * * * * * //

dimensions      [0 1 -1 0 0 0 0];


internalField   nonuniform List<vector> 
20540
(
(34.4454 -0.000170066 0)
(46.2684 0.00434418 0)
(34.4557 -0.000549088 0)
(46.2478 0.0128961 0)
(34.483 -0.00100807 0)
(46.1965 0.0204497 0)
(34.5367 -0.00155014 0)
(46.1059 0.0269636 0)
(34.63 -0.00218597 0)
(45.9672 0.0328948 0)
(34.7795 -0.00292444 0)
(45.7706 0.0386057 0)
(35.0053 -0.00376853 0)
(45.5056 0.0441287 0)
(35.3288 -0.00471292 0)
(45.1629 0.0493164 0)
(35.7698 -0.00574067 0)
(44.7354 0.053951 0)
(36.3428 -0.00681909 0)
(44.2208 0.0577639 0)
(37.0528 -0.00789549 0)
(43.6245 0.0604485 0)
(37.8919 -0.00889423 0)
(42.9628 0.0617108 0)
(38.8289 -0.0097042 0)
(42.266 0.0613587 0)
(39.7885 -0.0101314 0)
(41.5799 0.0594079 0)
(40.6252 -0.00981971 0)
(40.9708 0.0560435 0)
(41.1177 -0.00876949 0)
(40.6225 0.0519963 0)
(41.0757 -0.00877857 0)
(40.8962 0.0514406 0)
(40.9662 -0.00898155 0)
(41.0329 0.0514232 0)
(40.9998 -0.00860061 0)
(40.9735 0.0503169 0)
(41.0034 -0.00841518 0)
(40.9756 0.0493145 0)
(41.001 -0.00805233 0)
(40.9794 0.0479108 0)
(41.0014 -0.00772701 0)
(40.9804 0.0463329 0)
(41.0015 -0.00728774 0)
(40.982 0.0444069 0)
(41.0016 -0.00679378 0)
(40.9839 0.0421202 0)
(41.0017 -0.00622105 0)
(40.986 0.0394032 0)
(41.0018 -0.00556764 0)
(40.9885 0.0361811 0)
(41.002 -0.00483369 0)
(40.9911 0.0323699 0)
(41.0021 -0.00401944 0)
(40.9939 0.0278693 0)
(41.0023 -0.00313534 0)
(40.9968 0.02256 0)
(41.0024 -0.0021806 0)
(40.9995 0.0162728 0)
(41.0025 -0.00124972 0)
(41.0013 0.00963306 0)
(41.0026 -0.000406391 0)
(41.0023 0.00321379 0)
(41.0026 0.000413656 0)
(41.0023 -0.00317404 0)
(41.0025 0.00125803 0)
(41.0014 -0.00959431 0)
(41.0024 0.00217337 0)
(40.9995 -0.0161308 0)
(41.0023 0.00309929 0)
(40.997 -0.0222454 0)
(41.0021 0.00395913 0)
(40.9942 -0.0274403 0)
(41.002 0.0047528 0)
(40.9915 -0.0318682 0)
(41.0019 0.00547207 0)
(40.9889 -0.0356396 0)
(41.0017 0.00611589 0)
(40.9865 -0.0388468 0)
(41.0016 0.00668304 0)
(40.9843 -0.0415679 0)
(41.0016 0.0071804 0)
(40.9824 -0.0438742 0)
(41.0014 0.0076084 0)
(40.9809 -0.0458205 0)
(41.0012 0.00797726 0)
(40.9796 -0.047459 0)
(41.0021 0.00826257 0)
(40.9776 -0.0488238 0)
(41.0031 0.00859644 0)
(40.9727 -0.0500438 0)
(40.9811 0.00872618 0)
(40.9981 -0.0508316 0)
(40.9945 0.00906273 0)
(41.0221 -0.0518459 0)
(41.1516 0.00856682 0)
(40.6967 -0.0510945 0)
(40.9321 0.00933872 0)
(40.7382 -0.0539167 0)
(40.2724 0.010065 0)
(41.2324 -0.0577024 0)
(39.3925 0.00997809 0)
(41.861 -0.0603733 0)
(38.4629 0.00938462 0)
(42.5334 -0.0616531 0)
(37.5877 0.0085247 0)
(43.1982 -0.0614051 0)
(36.8175 0.00753013 0)
(43.8187 -0.0596928 0)
(36.1717 0.00648681 0)
(44.372 -0.0567333 0)
(35.6538 0.00545661 0)
(44.8466 -0.0528033 0)
(35.2564 0.00448228 0)
(45.2398 -0.0481728 0)
(34.9651 0.00358977 0)
(45.5549 -0.0430711 0)
(34.7614 0.00279207 0)
(45.7989 -0.0376813 0)
(34.6258 0.00209266 0)
(45.9805 -0.032118 0)
(34.5407 0.00148831 0)
(46.109 -0.0263239 0)
(34.4913 0.000970839 0)
(46.1932 -0.0199453 0)
(34.466 0.00053063 0)
(46.241 -0.0125647 0)
(34.4564 0.000164802 0)
(46.2603 -0.00423308 0)
(4.43319 0.00514299 0)
(3.35573 1.65445e-05 0)
(3.09887 3.28992e-06 0)
(2.94369 2.13334e-06 0)
(2.84058 1.45673e-06 0)
(2.76731 1.10189e-06 0)
(2.71201 8.83628e-07 0)
(2.66798 7.23417e-07 0)
(2.63259 5.99314e-07 0)
(2.60348 5.11055e-07 0)
(2.57894 4.44302e-07 0)
(2.55806 3.89101e-07 0)
(2.54014 3.4455e-07 0)
(2.52453 3.09433e-07 0)
(2.51077 2.79302e-07 0)
(2.49861 2.52325e-07 0)
(2.48782 2.3055e-07 0)
(2.47821 2.13482e-07 0)
(2.46957 1.98987e-07 0)
(2.46175 1.85463e-07 0)
(2.45465 1.7232e-07 0)
(2.4482 1.60598e-07 0)
(2.44233 1.50422e-07 0)
(2.43697 1.41424e-07 0)
(2.43207 1.33197e-07 0)
(2.42758 1.02255e-07 0)
(2.4234 6.71814e-08 0)
(2.41955 1.06783e-07 0)
(2.41603 1.56129e-07 0)
(2.41276 1.13737e-07 0)
(2.4097 6.9523e-08 0)
(2.40685 6.23259e-08 0)
(2.40419 9.00012e-08 0)
(2.40176 1.04247e-07 0)
(2.39948 3.76315e-08 0)
(2.39733 3.01379e-08 0)
(2.39536 5.25403e-08 0)
(2.39352 9.16692e-08 0)
(2.39186 1.11815e-07 0)
(2.39031 -2.06646e-08 0)
(2.38881 2.05228e-08 0)
(2.38755 9.33178e-08 0)
(2.38636 -9.41747e-08 0)
(2.38524 -2.40574e-08 0)
(2.38443 1.19509e-07 0)
(2.38374 -7.23283e-09 0)
(2.38316 -1.03058e-07 0)
(2.38279 -3.51215e-07 0)
(2.38257 -2.39146e-07 0)
(2.38276 -2.23128e-08 0)
(2.3832 -5.52502e-07 0)
(2.3838 -3.57906e-07 0)
(2.38502 1.06332e-09 0)
(2.38657 -7.50841e-07 0)
(2.38847 -6.7066e-07 0)
(2.3911 -2.7234e-07 0)
(2.39427 -9.57015e-07 0)
(2.39801 -1.2702e-06 0)
(2.4026 -1.19844e-06 0)
(2.408 -1.50279e-06 0)
(2.41437 -2.09542e-06 0)
(2.42169 -2.53741e-06 0)
(2.43026 -3.31236e-06 0)
(2.43839 -4.16127e-06 0)
(2.44552 -4.39424e-06 0)
(2.45305 -5.16957e-06 0)
(2.4611 -5.89967e-06 0)
(2.46966 -7.13299e-06 0)
(2.47862 -6.05672e-06 0)
(2.48834 -6.61781e-05 0)
(2.4865 -7.74805e-05 0)
(2.49514 -1.97136e-05 0)
(2.50664 -1.26888e-05 0)
(2.51767 -1.5473e-05 0)
(2.52973 -1.41641e-05 0)
(2.54265 -1.45196e-05 0)
(2.55651 -1.89428e-05 0)
(2.57031 -1.91181e-05 0)
(2.58649 -2.82099e-05 0)
(2.60138 -2.63357e-05 0)
(2.62113 -4.47526e-05 0)
(2.63791 -3.04764e-05 0)
(2.6638 -8.00633e-05 0)
(2.68635 -5.12471e-05 0)
(2.72034 -0.000176327 0)
(2.783 -0.000234893 0)
(2.81042 -0.00124121 0)
(2.81944 -0.0283299 0)
(13.371 0.0155086 0)
(10.5549 0.000646685 0)
(9.77172 0.000213349 0)
(9.29937 0.000139431 0)
(8.98371 9.87215e-05 0)
(8.75874 7.46509e-05 0)
(8.5887 5.98133e-05 0)
(8.45316 4.95636e-05 0)
(8.34405 4.17227e-05 0)
(8.25423 3.599e-05 0)
(8.17843 3.15936e-05 0)
(8.11392 2.79788e-05 0)
(8.05851 2.50804e-05 0)
(8.01021 2.27811e-05 0)
(7.96764 2.08439e-05 0)
(7.92998 1.91304e-05 0)
(7.89659 1.76353e-05 0)
(7.86681 1.63736e-05 0)
(7.84004 1.53143e-05 0)
(7.81582 1.43945e-05 0)
(7.79383 1.35617e-05 0)
(7.77383 1.27941e-05 0)
(7.75561 1.20885e-05 0)
(7.73901 1.14498e-05 0)
(7.72382 1.08806e-05 0)
(7.70987 1.03139e-05 0)
(7.69696 9.78953e-06 0)
(7.68501 9.50955e-06 0)
(7.67407 9.29002e-06 0)
(7.66393 8.85006e-06 0)
(7.65443 8.41223e-06 0)
(7.6456 8.08814e-06 0)
(7.63737 7.88591e-06 0)
(7.62982 7.65682e-06 0)
(7.62274 7.21222e-06 0)
(7.61609 6.93682e-06 0)
(7.60997 6.75177e-06 0)
(7.60427 6.60841e-06 0)
(7.59909 6.4072e-06 0)
(7.59423 5.79125e-06 0)
(7.5896 5.59625e-06 0)
(7.58562 5.46647e-06 0)
(7.5819 4.59779e-06 0)
(7.57842 4.26916e-06 0)
(7.57582 4.06297e-06 0)
(7.57362 3.12245e-06 0)
(7.57173 2.09438e-06 0)
(7.57045 3.71891e-07 0)
(7.56967 -5.55667e-07 0)
(7.57002 -1.45174e-06 0)
(7.57115 -4.70093e-06 0)
(7.57286 -6.26135e-06 0)
(7.57624 -7.81713e-06 0)
(7.58068 -1.30829e-05 0)
(7.58623 -1.6583e-05 0)
(7.59376 -1.97662e-05 0)
(7.60293 -2.67991e-05 0)
(7.61386 -3.38057e-05 0)
(7.62719 -4.0802e-05 0)
(7.64286 -5.00531e-05 0)
(7.66136 -6.1362e-05 0)
(7.68267 -7.41545e-05 0)
(7.70753 -8.99755e-05 0)
(7.73104 -0.000105599 0)
(7.75168 -0.000117818 0)
(7.77358 -0.00013247 0)
(7.79688 -0.00014849 0)
(7.82163 -0.000166946 0)
(7.84758 -0.000181443 0)
(7.87584 -0.000355349 0)
(7.88188 -0.000406846 0)
(7.90745 -0.000279983 0)
(7.94028 -0.000284985 0)
(7.97263 -0.000317772 0)
(8.00767 -0.000341966 0)
(8.04455 -0.00037717 0)
(8.08445 -0.00042335 0)
(8.12383 -0.000470813 0)
(8.16982 -0.000538419 0)
(8.212 -0.000599383 0)
(8.26731 -0.000717612 0)
(8.31383 -0.000773135 0)
(8.38382 -0.00107733 0)
(8.4445 -0.00108454 0)
(8.52945 -0.00219438 0)
(8.68518 -0.0022781 0)
(8.71718 -0.00389849 0)
(9.34297 -0.14405 0)
(21.0795 0.0262964 0)
(17.4265 0.0022236 0)
(16.307 0.000800282 0)
(15.6264 0.00052598 0)
(15.1658 0.000375565 0)
(14.8347 0.000285229 0)
(14.583 0.000229157 0)
(14.3814 0.000190344 0)
(14.2184 0.00016057 0)
(14.0839 0.000138715 0)
(13.9701 0.000121912 0)
(13.873 0.000108077 0)
(13.7895 9.69697e-05 0)
(13.7166 8.81474e-05 0)
(13.6522 8.07119e-05 0)
(13.5952 7.41309e-05 0)
(13.5447 6.83726e-05 0)
(13.4995 6.35024e-05 0)
(13.4589 5.94118e-05 0)
(13.4221 5.58646e-05 0)
(13.3887 5.26569e-05 0)
(13.3583 4.96966e-05 0)
(13.3307 4.69703e-05 0)
(13.3054 4.44999e-05 0)
(13.2823 4.22987e-05 0)
(13.2611 4.02356e-05 0)
(13.2415 3.83719e-05 0)
(13.2235 3.70415e-05 0)
(13.2067 3.58753e-05 0)
(13.1912 3.43737e-05 0)
(13.1768 3.2915e-05 0)
(13.1634 3.167e-05 0)
(13.1509 3.07106e-05 0)
(13.1393 2.97175e-05 0)
(13.1286 2.83424e-05 0)
(13.1186 2.73122e-05 0)
(13.1093 2.64431e-05 0)
(13.1007 2.56632e-05 0)
(13.0926 2.47455e-05 0)
(13.0852 2.30182e-05 0)
(13.0784 2.20557e-05 0)
(13.0722 2.11083e-05 0)
(13.0666 1.86272e-05 0)
(13.0617 1.72236e-05 0)
(13.0574 1.59287e-05 0)
(13.0539 1.26916e-05 0)
(13.0511 8.92034e-06 0)
(13.0492 3.76478e-06 0)
(13.0484 -2.20597e-07 0)
(13.0486 -4.79276e-06 0)
(13.0501 -1.43585e-05 0)
(13.0531 -2.13499e-05 0)
(13.0576 -2.9166e-05 0)
(13.064 -4.49474e-05 0)
(13.0725 -5.86982e-05 0)
(13.0831 -7.33552e-05 0)
(13.0964 -9.61975e-05 0)
(13.1126 -0.000120906 0)
(13.132 -0.000148111 0)
(13.1548 -0.000181776 0)
(13.1818 -0.000221495 0)
(13.2131 -0.000267486 0)
(13.2498 -0.000323062 0)
(13.2849 -0.00037747 0)
(13.3152 -0.000422301 0)
(13.3474 -0.00047262 0)
(13.3815 -0.00052829 0)
(13.4178 -0.000590534 0)
(13.4559 -0.000649807 0)
(13.4971 -0.000982309 0)
(13.5437 -0.00112352 0)
(13.5873 -0.000952493 0)
(13.634 -0.000998384 0)
(13.6825 -0.00110478 0)
(13.7342 -0.00119737 0)
(13.7865 -0.001321 0)
(13.8442 -0.00146338 0)
(13.9006 -0.0016314 0)
(13.9663 -0.00182143 0)
(14.0265 -0.00204162 0)
(14.1044 -0.00236008 0)
(14.1696 -0.00259973 0)
(14.2647 -0.00341143 0)
(14.3479 -0.00342996 0)
(14.4556 -0.00659064 0)
(14.6494 -0.0054738 0)
(14.6653 -0.0183281 0)
(15.6401 -0.186784 0)
(25.9929 0.0361326 0)
(21.8992 0.0044704 0)
(20.6021 0.00168927 0)
(19.8447 0.00110063 0)
(19.3393 0.000787377 0)
(18.9789 0.000599279 0)
(18.7063 0.000482407 0)
(18.4888 0.000401535 0)
(18.3135 0.000339427 0)
(18.1689 0.000293698 0)
(18.0469 0.000258515 0)
(17.9428 0.000229525 0)
(17.8534 0.000206198 0)
(17.7753 0.00018764 0)
(17.7065 0.000172007 0)
(17.6456 0.000158164 0)
(17.5915 0.000146016 0)
(17.5433 0.000135713 0)
(17.4999 0.000127052 0)
(17.4606 0.000119548 0)
(17.4249 0.00011277 0)
(17.3925 0.000106509 0)
(17.3629 0.000100733 0)
(17.3359 9.54906e-05 0)
(17.3112 9.08153e-05 0)
(17.2886 8.66288e-05 0)
(17.2677 8.28989e-05 0)
(17.2484 7.96838e-05 0)
(17.2305 7.67549e-05 0)
(17.2139 7.38462e-05 0)
(17.1985 7.10883e-05 0)
(17.1843 6.85347e-05 0)
(17.171 6.6172e-05 0)
(17.1586 6.38723e-05 0)
(17.1471 6.14988e-05 0)
(17.1365 5.93231e-05 0)
(17.1266 5.72477e-05 0)
(17.1174 5.5206e-05 0)
(17.1088 5.30592e-05 0)
(17.1009 5.04906e-05 0)
(17.0937 4.8039e-05 0)
(17.0871 4.53602e-05 0)
(17.0811 4.16889e-05 0)
(17.076 3.78832e-05 0)
(17.0713 3.35563e-05 0)
(17.0675 2.7766e-05 0)
(17.0647 2.06719e-05 0)
(17.0628 1.16384e-05 0)
(17.062 1.75938e-06 0)
(17.0622 -1.02142e-05 0)
(17.0639 -2.63075e-05 0)
(17.0672 -4.34459e-05 0)
(17.0719 -6.40911e-05 0)
(17.0787 -9.19766e-05 0)
(17.0878 -0.000122524 0)
(17.0991 -0.000157921 0)
(17.1132 -0.000202346 0)
(17.1305 -0.000253714 0)
(17.1512 -0.000312807 0)
(17.1756 -0.000383255 0)
(17.2044 -0.0004653 0)
(17.2378 -0.000561324 0)
(17.277 -0.000674791 0)
(17.3147 -0.000785749 0)
(17.3472 -0.000881077 0)
(17.3816 -0.000984433 0)
(17.418 -0.00109873 0)
(17.4567 -0.00122317 0)
(17.4975 -0.0013542 0)
(17.5407 -0.00157989 0)
(17.5968 -0.00176383 0)
(17.6455 -0.00186696 0)
(17.6949 -0.00203283 0)
(17.7466 -0.00223805 0)
(17.8017 -0.00245155 0)
(17.857 -0.00271231 0)
(17.918 -0.00297986 0)
(17.9777 -0.00332516 0)
(18.0471 -0.00367318 0)
(18.1107 -0.00413131 0)
(18.1924 -0.00470871 0)
(18.2615 -0.00522825 0)
(18.3594 -0.00672013 0)
(18.4492 -0.00668026 0)
(18.5519 -0.0129169 0)
(18.7615 -0.00855824 0)
(18.7493 -0.043213 0)
(19.6886 -0.197839 0)
(29.1728 0.0461346 0)
(24.704 0.00721423 0)
(23.2201 0.00280275 0)
(22.386 0.00180177 0)
(21.8391 0.00128426 0)
(21.4532 0.000975641 0)
(21.1636 0.000784357 0)
(20.9342 0.000652429 0)
(20.7499 0.000551392 0)
(20.5986 0.00047694 0)
(20.4713 0.000419746 0)
(20.363 0.000372708 0)
(20.2701 0.000334826 0)
(20.1892 0.000304672 0)
(20.1179 0.000279311 0)
(20.055 0.000256888 0)
(19.9991 0.0002372 0)
(19.9493 0.000220476 0)
(19.9046 0.00020641 0)
(19.8641 0.000194232 0)
(19.8274 0.000183248 0)
(19.794 0.000173111 0)
(19.7636 0.000163756 0)
(19.7358 0.000155259 0)
(19.7104 0.000147675 0)
(19.6871 0.000140951 0)
(19.6657 0.000134981 0)
(19.6459 0.000129624 0)
(19.6275 0.000124704 0)
(19.6105 0.000120088 0)
(19.5947 0.000115746 0)
(19.58 0.000111646 0)
(19.5664 0.000107705 0)
(19.5537 0.000103907 0)
(19.5419 0.000100261 0)
(19.531 9.67476e-05 0)
(19.5208 9.33026e-05 0)
(19.5113 8.9856e-05 0)
(19.5025 8.62993e-05 0)
(19.4944 8.2534e-05 0)
(19.487 7.84292e-05 0)
(19.4802 7.38442e-05 0)
(19.4741 6.84627e-05 0)
(19.4687 6.20665e-05 0)
(19.464 5.45584e-05 0)
(19.4601 4.55417e-05 0)
(19.4571 3.43356e-05 0)
(19.4551 2.0588e-05 0)
(19.4542 4.25324e-06 0)
(19.4544 -1.59111e-05 0)
(19.4561 -4.03472e-05 0)
(19.4593 -6.90633e-05 0)
(19.4642 -0.000104089 0)
(19.4711 -0.000146742 0)
(19.4803 -0.000196248 0)
(19.4918 -0.000255201 0)
(19.5062 -0.000325345 0)
(19.5238 -0.000407566 0)
(19.5449 -0.000503289 0)
(19.5697 -0.00061653 0)
(19.5991 -0.000747818 0)
(19.6331 -0.000902059 0)
(19.673 -0.00108295 0)
(19.7112 -0.00125972 0)
(19.7443 -0.0014139 0)
(19.7792 -0.00157867 0)
(19.8163 -0.00176085 0)
(19.8556 -0.00195834 0)
(19.8972 -0.00217308 0)
(19.9408 -0.00240155 0)
(19.9913 -0.00264939 0)
(20.0401 -0.00293582 0)
(20.0905 -0.00322632 0)
(20.1429 -0.00355471 0)
(20.1988 -0.00389812 0)
(20.2551 -0.00431667 0)
(20.3172 -0.00472814 0)
(20.3777 -0.00527924 0)
(20.4482 -0.0058047 0)
(20.5127 -0.00654075 0)
(20.5952 -0.00739875 0)
(20.6656 -0.00824042 0)
(20.7631 -0.0104649 0)
(20.8549 -0.0104022 0)
(20.9554 -0.0196622 0)
(21.158 -0.0132373 0)
(21.1772 -0.0637495 0)
(21.8564 -0.20255 0)
(31.5491 0.0572604 0)
(26.7908 0.0108347 0)
(25.1105 0.00429625 0)
(24.1879 0.00271483 0)
(23.5906 0.00192064 0)
(23.1726 0.00145221 0)
(22.8609 0.00116332 0)
(22.6153 0.000965163 0)
(22.4186 0.000814244 0)
(22.2577 0.000703115 0)
(22.1227 0.000618003 0)
(22.0081 0.000548268 0)
(21.91 0.000492117 0)
(21.8247 0.000447423 0)
(21.7497 0.000409934 0)
(21.6834 0.000376882 0)
(21.6247 0.000347879 0)
(21.5724 0.000323225 0)
(21.5255 0.000302478 0)
(21.4831 0.000284539 0)
(21.4446 0.000268391 0)
(21.4096 0.000253513 0)
(21.3778 0.000239792 0)
(21.3487 0.000227327 0)
(21.3222 0.000216194 0)
(21.2978 0.00020633 0)
(21.2754 0.000197578 0)
(21.2547 0.000189687 0)
(21.2355 0.000182437 0)
(21.2177 0.000175693 0)
(21.2012 0.000169358 0)
(21.1859 0.00016336 0)
(21.1717 0.000157584 0)
(21.1584 0.000152021 0)
(21.1461 0.000146722 0)
(21.1346 0.000141591 0)
(21.124 0.000136541 0)
(21.1141 0.000131481 0)
(21.1049 0.000126268 0)
(21.0965 0.00012082 0)
(21.0887 0.000114829 0)
(21.0816 0.000108082 0)
(21.0751 0.000100307 0)
(21.0695 9.10468e-05 0)
(21.0645 8.00771e-05 0)
(21.0604 6.69207e-05 0)
(21.0572 5.0626e-05 0)
(21.055 3.09166e-05 0)
(21.0539 7.13845e-06 0)
(21.0541 -2.22897e-05 0)
(21.0557 -5.74184e-05 0)
(21.0589 -9.94777e-05 0)
(21.0638 -0.000150826 0)
(21.0708 -0.000212061 0)
(21.0801 -0.000283908 0)
(21.0919 -0.000370053 0)
(21.1066 -0.000471456 0)
(21.1245 -0.000590648 0)
(21.146 -0.000729703 0)
(21.1714 -0.000894073 0)
(21.2015 -0.00108426 0)
(21.2362 -0.00130824 0)
(21.2769 -0.00157038 0)
(21.3157 -0.00182649 0)
(21.3495 -0.00205108 0)
(21.3852 -0.0022892 0)
(21.4231 -0.00255272 0)
(21.4632 -0.00283872 0)
(21.5056 -0.00314965 0)
(21.5501 -0.00347186 0)
(21.5983 -0.00382249 0)
(21.6476 -0.00423924 0)
(21.6992 -0.00466148 0)
(21.7524 -0.00514179 0)
(21.8093 -0.00563448 0)
(21.8667 -0.00624189 0)
(21.93 -0.00682677 0)
(21.9915 -0.00762691 0)
(22.0631 -0.00836416 0)
(22.1286 -0.00943519 0)
(22.212 -0.0106198 0)
(22.2832 -0.0118564 0)
(22.3815 -0.0148963 0)
(22.4717 -0.0149347 0)
(22.5786 -0.0271917 0)
(22.7516 -0.0200223 0)
(22.8466 -0.0805749 0)
(23.225 -0.212277 0)
(33.5161 0.0695094 0)
(28.5661 0.015592 0)
(26.6901 0.00633825 0)
(25.6723 0.00394415 0)
(25.0196 0.00276921 0)
(24.5657 0.00208349 0)
(24.2288 0.00166253 0)
(23.9647 0.00137536 0)
(23.7538 0.00115794 0)
(23.5817 0.000997969 0)
(23.4376 0.000875824 0)
(23.3156 0.000776156 0)
(23.2112 0.000695937 0)
(23.1206 0.00063209 0)
(23.0411 0.000578685 0)
(22.971 0.000531749 0)
(22.9089 0.000490605 0)
(22.8535 0.000455608 0)
(22.8039 0.000426144 0)
(22.7592 0.000400696 0)
(22.7186 0.000377841 0)
(22.6817 0.000356824 0)
(22.6481 0.00033746 0)
(22.6175 0.000319868 0)
(22.5895 0.000304146 0)
(22.5638 0.000290209 0)
(22.5402 0.00027784 0)
(22.5184 0.000266696 0)
(22.4982 0.000256463 0)
(22.4795 0.000246961 0)
(22.4621 0.00023804 0)
(22.446 0.000229594 0)
(22.431 0.000221483 0)
(22.417 0.000213669 0)
(22.4041 0.000206222 0)
(22.392 0.000199016 0)
(22.3808 0.000191925 0)
(22.3704 0.000184826 0)
(22.3607 0.000177512 0)
(22.3518 0.000169859 0)
(22.3436 0.000161489 0)
(22.3361 0.000152042 0)
(22.3293 0.00014115 0)
(22.3233 0.000128311 0)
(22.3181 0.000113064 0)
(22.3137 9.46453e-05 0)
(22.3102 7.19038e-05 0)
(22.3078 4.45675e-05 0)
(22.3066 1.1494e-05 0)
(22.3066 -2.94389e-05 0)
(22.3081 -7.82108e-05 0)
(22.3112 -0.000136845 0)
(22.3161 -0.000208397 0)
(22.3232 -0.000293295 0)
(22.3326 -0.000393132 0)
(22.3445 -0.000513091 0)
(22.3595 -0.000653879 0)
(22.3777 -0.000819508 0)
(22.3996 -0.00101277 0)
(22.4254 -0.00124124 0)
(22.4561 -0.00150526 0)
(22.4915 -0.00181657 0)
(22.533 -0.0021803 0)
(22.5725 -0.00253579 0)
(22.6069 -0.00284879 0)
(22.6433 -0.00317861 0)
(22.682 -0.00354356 0)
(22.7228 -0.00394034 0)
(22.766 -0.00436958 0)
(22.8113 -0.00482369 0)
(22.8594 -0.00531133 0)
(22.9093 -0.00587818 0)
(22.9618 -0.00645871 0)
(23.0159 -0.00712695 0)
(23.0738 -0.00780367 0)
(23.1321 -0.00864515 0)
(23.1963 -0.00944387 0)
(23.2587 -0.0105516 0)
(23.3312 -0.0115488 0)
(23.3974 -0.013032 0)
(23.4816 -0.0146042 0)
(23.5529 -0.0163479 0)
(23.6529 -0.0202686 0)
(23.7384 -0.020704 0)
(23.8572 -0.0356181 0)
(23.9909 -0.0297036 0)
(24.1648 -0.0949752 0)
(24.3175 -0.227566 0)
(35.2391 0.0827415 0)
(30.2018 0.0216772 0)
(28.1347 0.00908818 0)
(27.0153 0.00558752 0)
(26.3024 0.00389584 0)
(25.8088 0.00291752 0)
(25.4441 0.0023192 0)
(25.1593 0.00191306 0)
(24.9325 0.00160736 0)
(24.7479 0.00138259 0)
(24.5937 0.00121144 0)
(24.4633 0.00107236 0)
(24.3519 0.000960483 0)
(24.2554 0.000871436 0)
(24.1709 0.00079715 0)
(24.0963 0.000732074 0)
(24.0303 0.000675098 0)
(23.9716 0.000626609 0)
(23.919 0.000585767 0)
(23.8716 0.000550525 0)
(23.8286 0.000518945 0)
(23.7895 0.000489965 0)
(23.754 0.000463294 0)
(23.7216 0.000439065 0)
(23.692 0.000417401 0)
(23.6649 0.000398185 0)
(23.6399 0.000381128 0)
(23.6169 0.000365769 0)
(23.5955 0.000351679 0)
(23.5758 0.000338611 0)
(23.5574 0.000326354 0)
(23.5404 0.000314752 0)
(23.5246 0.000303635 0)
(23.5099 0.000292931 0)
(23.4962 0.000282722 0)
(23.4835 0.000272855 0)
(23.4716 0.00026315 0)
(23.4606 0.000253444 0)
(23.4504 0.000243452 0)
(23.441 0.000232989 0)
(23.4323 0.0002216 0)
(23.4244 0.000208743 0)
(23.4172 0.000193918 0)
(23.4108 0.000176558 0)
(23.4052 0.000155934 0)
(23.4005 0.000130935 0)
(23.3968 0.000100132 0)
(23.3941 6.32098e-05 0)
(23.3926 1.85104e-05 0)
(23.3925 -3.67674e-05 0)
(23.3938 -0.000102624 0)
(23.3968 -0.000181905 0)
(23.4017 -0.000278572 0)
(23.4087 -0.000393088 0)
(23.4181 -0.000527854 0)
(23.4302 -0.000689857 0)
(23.4453 -0.000879758 0)
(23.4637 -0.00110329 0)
(23.4859 -0.00136401 0)
(23.5121 -0.00167225 0)
(23.5432 -0.00202817 0)
(23.5792 -0.00244799 0)
(23.6213 -0.00293759 0)
(23.6614 -0.00341633 0)
(23.6963 -0.00383937 0)
(23.7333 -0.00428302 0)
(23.7725 -0.00477339 0)
(23.814 -0.00530719 0)
(23.8578 -0.00588249 0)
(23.9037 -0.00649841 0)
(23.9522 -0.00715622 0)
(24.0027 -0.0079106 0)
(24.0559 -0.0086855 0)
(24.1107 -0.00958369 0)
(24.1693 -0.0104863 0)
(24.2282 -0.0116142 0)
(24.2931 -0.0126744 0)
(24.3561 -0.0141555 0)
(24.4291 -0.0154689 0)
(24.4958 -0.0174532 0)
(24.5805 -0.0194731 0)
(24.6512 -0.0218778 0)
(24.7534 -0.0266772 0)
(24.8323 -0.0280107 0)
(24.9643 -0.04485 0)
(25.0607 -0.0426782 0)
(25.2913 -0.107975 0)
(25.3156 -0.244502 0)
(36.7864 0.0967815 0)
(31.7766 0.0292841 0)
(29.5277 0.0127404 0)
(28.2998 0.00776945 0)
(27.5207 0.00538434 0)
(26.9832 0.00401508 0)
(26.5873 0.00318005 0)
(26.2793 0.00261568 0)
(26.0346 0.00219327 0)
(25.8358 0.0018829 0)
(25.6702 0.00164711 0)
(25.5304 0.00145627 0)
(25.4111 0.00130288 0)
(25.308 0.00118077 0)
(25.2177 0.00107915 0)
(25.1381 0.000990428 0)
(25.0678 0.000912862 0)
(25.0053 0.000846825 0)
(24.9494 0.000791172 0)
(24.8989 0.000743191 0)
(24.8532 0.000700286 0)
(24.8118 0.000660999 0)
(24.774 0.00062489 0)
(24.7397 0.000592096 0)
(24.7083 0.000562763 0)
(24.6795 0.00053673 0)
(24.653 0.000513614 0)
(24.6286 0.000492809 0)
(24.606 0.00047374 0)
(24.5851 0.000456078 0)
(24.5657 0.000439527 0)
(24.5476 0.00042387 0)
(24.5309 0.000408895 0)
(24.5153 0.00039449 0)
(24.5008 0.000380749 0)
(24.4873 0.00036748 0)
(24.4748 0.000354441 0)
(24.4632 0.000341415 0)
(24.4524 0.000328028 0)
(24.4424 0.000314015 0)
(24.4331 0.000298812 0)
(24.4247 0.000281677 0)
(24.4171 0.000261942 0)
(24.4102 0.000238918 0)
(24.4043 0.00021158 0)
(24.3992 0.000178431 0)
(24.3951 0.000137661 0)
(24.3922 8.88313e-05 0)
(24.3904 2.9731e-05 0)
(24.39 -4.32538e-05 0)
(24.3911 -0.000130255 0)
(24.394 -0.000235021 0)
(24.3987 -0.000362606 0)
(24.4057 -0.000513723 0)
(24.415 -0.00069162 0)
(24.4271 -0.00090537 0)
(24.4423 -0.00115581 0)
(24.4607 -0.00145072 0)
(24.4831 -0.00179451 0)
(24.5096 -0.00220091 0)
(24.541 -0.00266993 0)
(24.5773 -0.00322312 0)
(24.6198 -0.00386713 0)
(24.6603 -0.00449702 0)
(24.6956 -0.00505533 0)
(24.7329 -0.00563891 0)
(24.7726 -0.00628276 0)
(24.8144 -0.00698409 0)
(24.8587 -0.00773816 0)
(24.9051 -0.00855025 0)
(24.954 -0.00941527 0)
(25.0048 -0.0104002 0)
(25.0585 -0.0114127 0)
(25.1137 -0.0125896 0)
(25.1727 -0.013767 0)
(25.232 -0.0152408 0)
(25.2972 -0.0166187 0)
(25.3605 -0.0185477 0)
(25.4338 -0.0202415 0)
(25.5006 -0.0228309 0)
(25.5856 -0.0253576 0)
(25.6553 -0.0286226 0)
(25.7594 -0.034242 0)
(25.8317 -0.0371156 0)
(25.9743 -0.0550467 0)
(26.0426 -0.0587594 0)
(26.2997 -0.121371 0)
(26.269 -0.259997 0)
(38.1775 0.111329 0)
(33.3272 0.0386028 0)
(30.9138 0.017541 0)
(29.5708 0.0106588 0)
(28.7188 0.00735043 0)
(28.132 0.00546067 0)
(27.7009 0.00431023 0)
(27.3666 0.00353548 0)
(27.1014 0.0029587 0)
(26.8864 0.0025351 0)
(26.7077 0.0022139 0)
(26.5571 0.00195494 0)
(26.4287 0.00174698 0)
(26.3179 0.0015814 0)
(26.221 0.00144391 0)
(26.1358 0.00132426 0)
(26.0605 0.00121985 0)
(25.9936 0.00113094 0)
(25.9338 0.00105596 0)
(25.8799 0.000991356 0)
(25.8311 0.00093371 0)
(25.7869 0.000881045 0)
(25.7467 0.000832716 0)
(25.7101 0.000788846 0)
(25.6766 0.000749595 0)
(25.646 0.00071474 0)
(25.6178 0.000683778 0)
(25.5918 0.000655922 0)
(25.5678 0.000630417 0)
(25.5455 0.000606819 0)
(25.5248 0.000584728 0)
(25.5057 0.000563849 0)
(25.4879 0.000543915 0)
(25.4713 0.000524766 0)
(25.4559 0.000506501 0)
(25.4416 0.000488879 0)
(25.4283 0.000471586 0)
(25.4159 0.000454337 0)
(25.4044 0.000436646 0)
(25.3937 0.00041815 0)
(25.3839 0.000398144 0)
(25.3749 0.000375656 0)
(25.3667 0.000349804 0)
(25.3594 0.000319721 0)
(25.3529 0.000284043 0)
(25.3475 0.00024084 0)
(25.343 0.000187808 0)
(25.3397 0.000124282 0)
(25.3376 4.74496e-05 0)
(25.3369 -4.72572e-05 0)
(25.3377 -0.000160259 0)
(25.3403 -0.000296297 0)
(25.3449 -0.000461694 0)
(25.3516 -0.000657731 0)
(25.3609 -0.000888541 0)
(25.3728 -0.00116557 0)
(25.3879 -0.00149011 0)
(25.4064 -0.00187244 0)
(25.4288 -0.00231785 0)
(25.4553 -0.00284424 0)
(25.4868 -0.00345152 0)
(25.5233 -0.00416756 0)
(25.566 -0.00499988 0)
(25.6067 -0.00581398 0)
(25.6422 -0.00653724 0)
(25.6797 -0.00729181 0)
(25.7196 -0.00812237 0)
(25.7617 -0.00902728 0)
(25.8061 -0.00999867 0)
(25.8527 -0.0110484 0)
(25.9018 -0.0121644 0)
(25.9529 -0.0134291 0)
(26.0068 -0.0147301 0)
(26.0621 -0.0162428 0)
(26.1212 -0.0177529 0)
(26.1808 -0.0196415 0)
(26.246 -0.021404 0)
(26.3093 -0.0238665 0)
(26.3825 -0.0260164 0)
(26.4491 -0.0293324 0)
(26.534 -0.0324317 0)
(26.6025 -0.0367913 0)
(26.7076 -0.0431654 0)
(26.7746 -0.0482339 0)
(26.9227 -0.0666423 0)
(26.9746 -0.0775055 0)
(27.2327 -0.136623 0)
(27.1868 -0.273474 0)
(39.4026 0.125875 0)
(34.8664 0.0497648 0)
(32.3192 0.0237858 0)
(30.8565 0.0144785 0)
(29.9245 0.00995104 0)
(29.2826 0.00737018 0)
(28.8114 0.00579966 0)
(28.4469 0.00474482 0)
(28.1583 0.00396341 0)
(27.9244 0.00338962 0)
(27.7305 0.0029551 0)
(27.5672 0.00260609 0)
(27.4283 0.00232611 0)
(27.3085 0.00210308 0)
(27.2039 0.00191822 0)
(27.1121 0.00175792 0)
(27.031 0.00161831 0)
(26.959 0.00149941 0)
(26.8946 0.00139907 0)
(26.8367 0.00131266 0)
(26.7844 0.00123571 0)
(26.7369 0.00116558 0)
(26.6938 0.00110134 0)
(26.6545 0.00104307 0)
(26.6187 0.000990922 0)
(26.5858 0.000944592 0)
(26.5557 0.000903414 0)
(26.5278 0.000866379 0)
(26.5021 0.000832504 0)
(26.4783 0.000801195 0)
(26.4562 0.000771918 0)
(26.4357 0.000744275 0)
(26.4167 0.000717936 0)
(26.3989 0.000692678 0)
(26.3825 0.000668589 0)
(26.3672 0.000645378 0)
(26.3529 0.000622638 0)
(26.3396 0.0006 0)
(26.3273 0.000576839 0)
(26.3159 0.000552668 0)
(26.3054 0.000526605 0)
(26.2957 0.000497414 0)
(26.2869 0.000463943 0)
(26.279 0.000425075 0)
(26.272 0.00037906 0)
(26.266 0.000323472 0)
(26.2611 0.000255395 0)
(26.2573 0.000173795 0)
(26.2548 7.52005e-05 0)
(26.2537 -4.60555e-05 0)
(26.2542 -0.000190901 0)
(26.2565 -0.000365168 0)
(26.2607 -0.000576629 0)
(26.2672 -0.000827535 0)
(26.2762 -0.00112298 0)
(26.2879 -0.00147708 0)
(26.3028 -0.00189194 0)
(26.3212 -0.00238082 0)
(26.3435 -0.00295 0)
(26.3699 -0.0036224 0)
(26.4013 -0.00439799 0)
(26.4377 -0.00531197 0)
(26.4804 -0.00637311 0)
(26.5211 -0.00741069 0)
(26.5566 -0.00833396 0)
(26.5941 -0.00929659 0)
(26.634 -0.0103534 0)
(26.6761 -0.0115047 0)
(26.7206 -0.012739 0)
(26.7672 -0.014076 0)
(26.8162 -0.0154951 0)
(26.8672 -0.0170969 0)
(26.9211 -0.0187468 0)
(26.9764 -0.0206623 0)
(27.0353 -0.0225743 0)
(27.0948 -0.0249571 0)
(27.1597 -0.0271846 0)
(27.2229 -0.0302791 0)
(27.2955 -0.0329763 0)
(27.3618 -0.037156 0)
(27.4461 -0.0409138 0)
(27.5135 -0.0466131 0)
(27.6183 -0.0537377 0)
(27.6821 -0.0615371 0)
(27.8299 -0.0801969 0)
(27.8749 -0.0985535 0)
(28.1185 -0.154365 0)
(28.0729 -0.285801 0)
(40.43 0.139644 0)
(36.3873 0.0627488 0)
(33.7577 0.0318014 0)
(32.1762 0.0195123 0)
(31.1579 0.0133941 0)
(30.4546 0.0098995 0)
(29.9381 0.00777029 0)
(29.5391 0.00634239 0)
(29.2233 0.00528923 0)
(28.9676 0.00451572 0)
(28.7559 0.00393034 0)
(28.5779 0.00346177 0)
(28.4266 0.00308626 0)
(28.2962 0.00278689 0)
(28.1825 0.00253913 0)
(28.0828 0.00232504 0)
(27.9949 0.00213902 0)
(27.9168 0.00198059 0)
(27.8471 0.00184675 0)
(27.7844 0.00173152 0)
(27.7278 0.0016291 0)
(27.6765 0.001536 0)
(27.6299 0.0014509 0)
(27.5875 0.00137379 0)
(27.5488 0.00130478 0)
(27.5134 0.00124342 0)
(27.4808 0.00118885 0)
(27.4508 0.00113979 0)
(27.4231 0.00109495 0)
(27.3974 0.00105355 0)
(27.3736 0.00101488 0)
(27.3515 0.000978421 0)
(27.331 0.000943754 0)
(27.3119 0.000910576 0)
(27.2942 0.000878951 0)
(27.2777 0.00084852 0)
(27.2623 0.000818769 0)
(27.248 0.000789217 0)
(27.2347 0.000759077 0)
(27.2224 0.000727693 0)
(27.211 0.000693972 0)
(27.2006 0.000656368 0)
(27.191 0.000613393 0)
(27.1824 0.000563602 0)
(27.1747 0.000504784 0)
(27.1681 0.000433946 0)
(27.1625 0.000347439 0)
(27.1582 0.000243676 0)
(27.1552 0.000118447 0)
(27.1536 -3.51663e-05 0)
(27.1536 -0.00021887 0)
(27.1554 -0.000439723 0)
(27.1593 -0.000707122 0)
(27.1654 -0.00102477 0)
(27.174 -0.00139887 0)
(27.1854 -0.0018465 0)
(27.2 -0.00237101 0)
(27.218 -0.00298923 0)
(27.24 -0.0037086 0)
(27.2661 -0.00455794 0)
(27.2973 -0.00553761 0)
(27.3334 -0.00669123 0)
(27.3759 -0.00802939 0)
(27.4164 -0.00933705 0)
(27.4517 -0.0105016 0)
(27.4891 -0.0117164 0)
(27.5287 -0.0130462 0)
(27.5706 -0.0144946 0)
(27.6149 -0.0160457 0)
(27.6613 -0.0177287 0)
(27.7101 -0.0195131 0)
(27.7609 -0.0215189 0)
(27.8144 -0.0235892 0)
(27.8694 -0.0259855 0)
(27.9279 -0.0283819 0)
(27.987 -0.0313505 0)
(28.0513 -0.0341398 0)
(28.1141 -0.0379776 0)
(28.186 -0.041335 0)
(28.2517 -0.0465249 0)
(28.3348 -0.0510663 0)
(28.4014 -0.058329 0)
(28.5044 -0.0663143 0)
(28.5668 -0.0771889 0)
(28.7099 -0.0962455 0)
(28.7534 -0.121731 0)
(28.9758 -0.174705 0)
(28.934 -0.297853 0)
(41.2111 0.151595 0)
(37.8615 0.0772466 0)
(35.2314 0.0418982 0)
(33.5426 0.026106 0)
(32.4341 0.0179493 0)
(31.6635 0.0132557 0)
(31.0963 0.010386 0)
(30.6581 0.00846163 0)
(30.3112 0.00704746 0)
(30.0304 0.00600801 0)
(29.798 0.00522126 0)
(29.6028 0.00459343 0)
(29.4369 0.00409075 0)
(29.294 0.00368953 0)
(29.1697 0.00335781 0)
(29.0606 0.00307214 0)
(28.9645 0.00282456 0)
(28.8793 0.0026137 0)
(28.8032 0.00243537 0)
(28.7348 0.0022818 0)
(28.6731 0.00214555 0)
(28.6172 0.00202203 0)
(28.5665 0.00190939 0)
(28.5203 0.00180745 0)
(28.4782 0.00171622 0)
(28.4396 0.00163507 0)
(28.4042 0.00156282 0)
(28.3715 0.00149786 0)
(28.3414 0.00143855 0)
(28.3135 0.00138384 0)
(28.2876 0.00133281 0)
(28.2636 0.00128477 0)
(28.2413 0.00123919 0)
(28.2206 0.00119567 0)
(28.2013 0.00115423 0)
(28.1834 0.00111441 0)
(28.1667 0.00107558 0)
(28.1511 0.00103711 0)
(28.1367 0.000998015 0)
(28.1232 0.000957423 0)
(28.1108 0.000913982 0)
(28.0994 0.000865786 0)
(28.0889 0.000810929 0)
(28.0794 0.000747546 0)
(28.0709 0.000672876 0)
(28.0635 0.000583265 0)
(28.0572 0.000474204 0)
(28.0522 0.000343332 0)
(28.0485 0.000185583 0)
(28.0463 -7.37095e-06 0)
(28.0457 -0.000238327 0)