/*--------------------------------*- C++ -*----------------------------------*\
| =========                 |                                                 |
| \\      /  F ield         | OpenFOAM: The Open Source CFD Toolbox           |
|  \\    /   O peration     | Version:  v2006                                 |
|   \\  /    A nd           | Website:  www.openfoam.com                      |
|    \\/     M anipulation  |                                                 |
\*---------------------------------------------------------------------------*/
FoamFile
{
    version     2.0;
    format      ascii;
    class       volVectorField;
    location    "10000";
    object      U;
}
// * * * * * * * * * * * * * * * * * * * * * * * * * * * * * * * * * * * * * //

dimensions      [0 1 -1 0 0 0 0];


internalField   nonuniform List<vector> 
20540
(
(35.2934 -0.000173476 0)
(47.3808 0.00443545 0)
(35.3041 -0.000560169 0)
(47.3594 0.01315 0)
(35.3324 -0.00102842 0)
(47.3066 0.0208111 0)
(35.3882 -0.00158123 0)
(47.2134 0.0274015 0)
(35.4848 -0.00222958 0)
(47.0709 0.033415 0)
(35.6396 -0.00298255 0)
(46.8691 0.0392212 0)
(35.873 -0.0038431 0)
(46.5974 0.0448427 0)
(36.2069 -0.00480566 0)
(46.246 0.050124 0)
(36.6614 -0.00585279 0)
(45.8078 0.0548408 0)
(37.2508 -0.00695088 0)
(45.2805 0.0587181 0)
(37.98 -0.00804595 0)
(44.6699 0.061442 0)
(38.8407 -0.00906066 0)
(43.9928 0.0627131 0)
(39.8011 -0.00988124 0)
(43.2807 0.062338 0)
(40.7832 -0.0103084 0)
(42.5808 0.0603386 0)
(41.6362 -0.00997457 0)
(41.9605 0.0569016 0)
(42.1313 -0.00889978 0)
(41.6115 0.0527907 0)
(42.0765 -0.00894172 0)
(41.8992 0.0523 0)
(41.9648 -0.00913268 0)
(42.0334 0.052247 0)
(42.0001 -0.00874456 0)
(41.9727 0.051122 0)
(42.0035 -0.00855803 0)
(41.9752 0.050105 0)
(42.001 -0.00818796 0)
(41.979 0.0486792 0)
(42.0014 -0.00785681 0)
(41.98 0.0470765 0)
(42.0015 -0.00741009 0)
(41.9817 0.0451211 0)
(42.0016 -0.00690738 0)
(41.9836 0.042799 0)
(42.0018 -0.00632486 0)
(41.9858 0.04004 0)
(42.0019 -0.00566029 0)
(41.9883 0.0367677 0)
(42.002 -0.00491388 0)
(41.991 0.0328969 0)
(42.0022 -0.00408593 0)
(41.9938 0.0283251 0)
(42.0023 -0.00318709 0)
(41.9968 0.022931 0)
(42.0025 -0.00221652 0)
(41.9995 0.016542 0)
(42.0026 -0.00127017 0)
(42.0014 0.00979365 0)
(42.0026 -0.000412878 0)
(42.0023 0.00326866 0)
(42.0026 0.000420676 0)
(42.0023 -0.00322462 0)
(42.0026 0.001279 0)
(42.0014 -0.00975073 0)
(42.0025 0.00220946 0)
(41.9995 -0.0163943 0)
(42.0023 0.00315065 0)
(41.9969 -0.0226082 0)
(42.0022 0.00402473 0)
(41.9941 -0.0278865 0)
(42.0021 0.00483167 0)
(41.9913 -0.0323848 0)
(42.0019 0.00556305 0)
(41.9887 -0.0362155 0)
(42.0018 0.00621776 0)
(41.9862 -0.0394729 0)
(42.0017 0.00679457 0)
(41.9841 -0.0422364 0)
(42.0016 0.00730061 0)
(41.9821 -0.0445786 0)
(42.0014 0.00773562 0)
(41.9805 -0.0465548 0)
(42.0012 0.00811193 0)
(41.9792 -0.0482194 0)
(42.0021 0.00840015 0)
(41.9773 -0.0496039 0)
(42.0034 0.00874436 0)
(41.9722 -0.0508476 0)
(41.9813 0.00886588 0)
(41.9967 -0.0516367 0)
(41.9912 0.00923318 0)
(42.0266 -0.0527047 0)
(42.1573 0.00870351 0)
(41.6957 -0.0519067 0)
(41.946 0.00947293 0)
(41.7252 -0.0547219 0)
(41.2776 0.0102298 0)
(42.2261 -0.0585867 0)
(40.3792 0.0101529 0)
(42.8664 -0.0613182 0)
(39.4273 0.00955493 0)
(43.5529 -0.0626375 0)
(38.5302 0.00868305 0)
(44.2326 -0.0624015 0)
(37.7398 0.00767251 0)
(44.8677 -0.060671 0)
(37.0764 0.00661116 0)
(45.4344 -0.0576662 0)
(36.5434 0.00556229 0)
(45.9207 -0.0536695 0)
(36.1337 0.00456975 0)
(46.3238 -0.0489572 0)
(35.8329 0.00366022 0)
(46.6469 -0.0437646 0)
(35.6222 0.00284711 0)
(46.8972 -0.0382801 0)
(35.4819 0.00213409 0)
(47.0835 -0.0326262 0)
(35.3937 0.00151794 0)
(47.2155 -0.026754 0)
(35.3425 0.000990287 0)
(47.3022 -0.0203009 0)
(35.3163 0.000541253 0)
(47.3515 -0.0128145 0)
(35.3063 0.00016808 0)
(47.3715 -0.00432285 0)
(4.64017 0.00526292 0)
(3.51652 1.61717e-05 0)
(3.24486 3.39623e-06 0)
(3.08126 2.22822e-06 0)
(2.97282 1.52882e-06 0)
(2.89586 1.16135e-06 0)
(2.83788 9.34754e-07 0)
(2.79176 7.69697e-07 0)
(2.7547 6.41959e-07 0)
(2.72425 5.51551e-07 0)
(2.69858 4.83311e-07 0)
(2.67674 4.26556e-07 0)
(2.658 3.8068e-07 0)
(2.64168 3.44559e-07 0)
(2.6273 3.14345e-07 0)
(2.61459 2.87681e-07 0)
(2.60332 2.64442e-07 0)
(2.59327 2.44894e-07 0)
(2.58424 2.28509e-07 0)
(2.57607 2.14307e-07 0)
(2.56866 2.01564e-07 0)
(2.56191 1.89887e-07 0)
(2.55578 1.79182e-07 0)
(2.55018 1.69569e-07 0)
(2.54506 1.61061e-07 0)
(2.54036 1.53547e-07 0)
(2.53603 1.44712e-07 0)
(2.53203 1.34945e-07 0)
(2.52833 1.30021e-07 0)
(2.52489 9.97971e-08 0)
(2.52167 5.65453e-08 0)
(2.51867 1.14385e-07 0)
(2.51595 1.51804e-07 0)
(2.51339 5.86143e-08 0)
(2.51097 1.00237e-07 0)
(2.5088 1.54032e-07 0)
(2.50674 3.30802e-08 0)
(2.50478 8.37438e-08 0)
(2.50306 1.50988e-07 0)
(2.50143 -7.48346e-09 0)
(2.49986 3.55709e-08 0)
(2.49854 1.03498e-07 0)
(2.49729 -8.23661e-08 0)
(2.49611 -1.66052e-08 0)
(2.49527 8.6229e-08 0)
(2.4945 -9.65858e-08 0)
(2.49385 -1.07905e-07 0)
(2.49353 -5.99024e-08 0)
(2.49338 -2.95012e-07 0)
(2.49343 -1.66032e-07 0)
(2.49397 7.34295e-08 0)
(2.49476 -3.19387e-07 0)
(2.49589 -5.16273e-07 0)
(2.49751 -7.19211e-07 0)
(2.49949 -6.58363e-07 0)
(2.50219 -4.29847e-07 0)
(2.50547 -9.33044e-07 0)
(2.50938 -1.24327e-06 0)
(2.51414 -1.46921e-06 0)
(2.5197 -1.79552e-06 0)
(2.52632 -2.26667e-06 0)
(2.53392 -2.65423e-06 0)
(2.54284 -3.27571e-06 0)
(2.55131 -4.44051e-06 0)
(2.55868 -4.90015e-06 0)
(2.56651 -5.45566e-06 0)
(2.57488 -6.18094e-06 0)
(2.58378 -7.00215e-06 0)
(2.5932 -7.91757e-06 0)
(2.60314 -8.9095e-06 0)
(2.61364 -1.00937e-05 0)
(2.62466 -1.13046e-05 0)
(2.63634 -1.29169e-05 0)
(2.64848 -1.4332e-05 0)
(2.66151 -1.67526e-05 0)
(2.67481 -1.81805e-05 0)
(2.68952 -2.23352e-05 0)
(2.70405 -2.40916e-05 0)
(2.72102 -2.63639e-05 0)
(2.73727 -0.000133977 0)
(2.74175 -0.000177648 0)
(2.75589 -6.11847e-05 0)
(2.7824 -8.93512e-05 0)
(2.80545 -5.37106e-05 0)
(2.84035 -0.000179937 0)
(2.90481 -0.00024373 0)
(2.93109 -0.00127511 0)
(2.9461 -0.0280342 0)
(13.9578 0.0158658 0)
(11.0381 0.000677601 0)
(10.2142 0.000226453 0)
(9.71868 0.000147564 0)
(9.38826 0.000104282 0)
(9.15295 7.87506e-05 0)
(8.9754 6.30144e-05 0)
(8.83397 5.21915e-05 0)
(8.72015 4.39193e-05 0)
(8.62653 3.78745e-05 0)
(8.54753 3.32551e-05 0)
(8.48029 2.94562e-05 0)
(8.42255 2.6404e-05 0)
(8.37222 2.39853e-05 0)
(8.32787 2.19559e-05 0)
(8.28864 2.01625e-05 0)
(8.25385 1.85898e-05 0)
(8.22282 1.7257e-05 0)
(8.19494 1.61387e-05 0)
(8.16971 1.51726e-05 0)
(8.1468 1.43025e-05 0)
(8.12596 1.35002e-05 0)
(8.10698 1.27602e-05 0)
(8.08967 1.20888e-05 0)
(8.07384 1.14901e-05 0)
(8.05931 1.09604e-05 0)
(8.04593 1.04849e-05 0)
(8.03356 1.0053e-05 0)
(8.02209 9.6675e-06 0)
(8.01146 9.23943e-06 0)
(8.00152 8.79482e-06 0)
(7.99227 8.63886e-06 0)
(7.98382 8.44555e-06 0)
(7.9759 7.90949e-06 0)
(7.96843 7.7431e-06 0)
(7.96167 7.62519e-06 0)
(7.9553 7.04006e-06 0)
(7.94927 6.90978e-06 0)
(7.94389 6.82603e-06 0)
(7.93882 6.12834e-06 0)
(7.93399 5.923e-06 0)
(7.92984 5.78001e-06 0)
(7.9259 4.90197e-06 0)
(7.92226 4.5043e-06 0)
(7.91955 4.21069e-06 0)
(7.9171 3.10873e-06 0)
(7.91502 2.12279e-06 0)
(7.91392 1.22497e-06 0)
(7.9133 -5.90292e-07 0)
(7.91325 -1.86809e-06 0)
(7.91464 -3.02413e-06 0)
(7.91681 -6.40672e-06 0)
(7.92 -9.74613e-06 0)
(7.9246 -1.34318e-05 0)
(7.93033 -1.71046e-05 0)
(7.93808 -2.10186e-05 0)
(7.94754 -2.77657e-05 0)
(7.95888 -3.50154e-05 0)
(7.97262 -4.30819e-05 0)
(7.98876 -5.27908e-05 0)
(8.00791 -6.42845e-05 0)
(8.02997 -7.74514e-05 0)
(8.05575 -9.34513e-05 0)
(8.08011 -0.00011052 0)
(8.10138 -0.000123856 0)
(8.12404 -0.000138459 0)
(8.1482 -0.000155076 0)
(8.17384 -0.000173076 0)
(8.20094 -0.000192626 0)
(8.2295 -0.000213993 0)
(8.25962 -0.000237363 0)
(8.29117 -0.000263091 0)
(8.32452 -0.000291307 0)
(8.35911 -0.000322734 0)
(8.39611 -0.000357775 0)
(8.43378 -0.000396772 0)
(8.47527 -0.000442647 0)
(8.51606 -0.000494671 0)
(8.56347 -0.000548889 0)
(8.60884 -0.000906692 0)
(8.64047 -0.00110266 0)
(8.68094 -0.000884926 0)
(8.75216 -0.00114267 0)
(8.81427 -0.00112837 0)
(8.901 -0.00227104 0)
(9.06158 -0.00232777 0)
(9.08803 -0.00396103 0)
(9.75316 -0.146678 0)
(21.833 0.0268252 0)
(18.0853 0.00231595 0)
(16.9278 0.000841273 0)
(16.2255 0.000551863 0)
(15.7509 0.000393681 0)
(15.4097 0.000298808 0)
(15.1506 0.000239875 0)
(14.9432 0.000199221 0)
(14.7756 0.000168036 0)
(14.6372 0.000145145 0)
(14.5201 0.000127602 0)
(14.4202 0.000113151 0)
(14.3343 0.000101521 0)
(14.2593 9.22909e-05 0)
(14.193 8.45387e-05 0)
(14.1344 7.76808e-05 0)
(14.0823 7.16587e-05 0)
(14.0358 6.6549e-05 0)
(13.994 6.22587e-05 0)
(13.9562 5.85514e-05 0)
(13.9217 5.52109e-05 0)
(13.8904 5.21283e-05 0)
(13.8619 4.92829e-05 0)
(13.8359 4.66989e-05 0)
(13.8121 4.4393e-05 0)
(13.7902 4.23521e-05 0)
(13.77 4.05314e-05 0)
(13.7514 3.88871e-05 0)
(13.7342 3.73978e-05 0)
(13.7182 3.58853e-05 0)
(13.7033 3.43977e-05 0)
(13.6895 3.34548e-05 0)
(13.6767 3.24458e-05 0)
(13.6647 3.08831e-05 0)
(13.6537 3.0012e-05 0)
(13.6433 2.92026e-05 0)
(13.6337 2.76082e-05 0)
(13.6248 2.68375e-05 0)
(13.6166 2.60854e-05 0)
(13.6089 2.42124e-05 0)
(13.6019 2.3207e-05 0)
(13.5955 2.21499e-05 0)
(13.5897 1.96011e-05 0)
(13.5846 1.80723e-05 0)
(13.5802 1.6504e-05 0)
(13.5765 1.28581e-05 0)
(13.5737 9.43645e-06 0)
(13.5718 5.91323e-06 0)
(13.5708 -3.58974e-07 0)
(13.571 -5.58873e-06 0)
(13.5726 -1.09833e-05 0)
(13.5755 -2.20122e-05 0)
(13.5803 -3.34288e-05 0)
(13.5868 -4.64312e-05 0)
(13.5955 -6.07769e-05 0)
(13.6064 -7.69795e-05 0)
(13.62 -9.99325e-05 0)
(13.6366 -0.000125782 0)
(13.6565 -0.000155219 0)
(13.68 -0.000190222 0)
(13.7077 -0.000231203 0)
(13.7398 -0.000278826 0)
(13.7775 -0.000335825 0)
(13.8136 -0.000393904 0)
(13.8448 -0.000441618 0)
(13.8778 -0.000492683 0)
(13.9129 -0.000550437 0)
(13.9501 -0.000613021 0)
(13.9893 -0.00068067 0)
(14.0306 -0.000754429 0)
(14.0741 -0.000834246 0)
(14.1195 -0.000922396 0)
(14.1674 -0.00101699 0)
(14.217 -0.00112418 0)
(14.2699 -0.00123819 0)
(14.3236 -0.00137163 0)
(14.3826 -0.00151367 0)
(14.4403 -0.0016898 0)
(14.5073 -0.00186863 0)
(14.5702 -0.0025196 0)
(14.6571 -0.00298689 0)
(14.7232 -0.00284703 0)
(14.8201 -0.00359136 0)
(14.9055 -0.00355297 0)
(15.014 -0.00683069 0)
(15.2138 -0.00547706 0)
(15.2213 -0.0191842 0)
(16.2333 -0.188774 0)
(26.7768 0.0367781 0)
(22.5819 0.00461619 0)
(21.2452 0.00175634 0)
(20.4662 0.00114212 0)
(19.9472 0.000816185 0)
(19.5772 0.000620754 0)
(19.2977 0.000499239 0)
(19.0748 0.000415431 0)
(18.8951 0.000351081 0)
(18.7471 0.000303696 0)
(18.6221 0.000267358 0)
(18.5156 0.00023741 0)
(18.424 0.000213253 0)
(18.3441 0.000194051 0)
(18.2736 0.000177924 0)
(18.2112 0.000163651 0)
(18.1558 0.000151097 0)
(18.1064 0.000140423 0)
(18.0619 0.000131451 0)
(18.0217 0.000123697 0)
(17.9852 0.000116712 0)
(17.9519 0.000110263 0)
(17.9216 0.000104305 0)
(17.8939 9.88868e-05 0)
(17.8686 9.40452e-05 0)
(17.8454 8.97561e-05 0)
(17.824 8.59413e-05 0)
(17.8042 8.25107e-05 0)
(17.7859 7.93789e-05 0)
(17.7689 7.64116e-05 0)
(17.7532 7.35875e-05 0)
(17.7386 7.10858e-05 0)
(17.7249 6.8645e-05 0)
(17.7122 6.60698e-05 0)
(17.7005 6.3844e-05 0)
(17.6895 6.16981e-05 0)
(17.6793 5.92773e-05 0)
(17.6699 5.71811e-05 0)
(17.6611 5.50446e-05 0)
(17.653 5.23683e-05 0)
(17.6457 4.98346e-05 0)
(17.6388 4.70622e-05 0)
(17.6328 4.32899e-05 0)
(17.6275 3.92703e-05 0)
(17.6227 3.48173e-05 0)
(17.6188 2.87495e-05 0)
(17.616 2.14141e-05 0)
(17.6139 1.30772e-05 0)
(17.613 2.01758e-06 0)
(17.6134 -1.05053e-05 0)
(17.6149 -2.48993e-05 0)
(17.6181 -4.47699e-05 0)
(17.6231 -6.7635e-05 0)
(17.63 -9.43221e-05 0)
(17.6393 -0.000125825 0)
(17.6508 -0.000162874 0)
(17.6653 -0.000208217 0)
(17.6829 -0.000261243 0)
(17.7041 -0.000322723 0)
(17.729 -0.000395357 0)
(17.7585 -0.000479768 0)
(17.7926 -0.000578636 0)
(17.8328 -0.000695181 0)
(17.8714 -0.000810105 0)
(17.9047 -0.000908883 0)
(17.9398 -0.00101492 0)
(17.9771 -0.00113264 0)
(18.0166 -0.00125994 0)
(18.0583 -0.00139717 0)
(18.1021 -0.00154675 0)
(18.1483 -0.00170758 0)
(18.1965 -0.00188575 0)
(18.2473 -0.00207462 0)
(18.2999 -0.00229092 0)
(18.3559 -0.00251522 0)
(18.4128 -0.00278529 0)
(18.4752 -0.00305801 0)
(18.5361 -0.00341107 0)
(18.6071 -0.00376535 0)
(18.6722 -0.00432939 0)
(18.7668 -0.00496472 0)
(18.8395 -0.00541842 0)
(18.9392 -0.00694087 0)
(19.0313 -0.00682476 0)
(19.134 -0.013275 0)
(19.3504 -0.00844739 0)
(19.3284 -0.0447184 0)
(20.2974 -0.19892 0)
(29.9783 0.046964 0)
(25.4 0.00742246 0)
(23.8729 0.00289757 0)
(23.0155 0.00185945 0)
(22.4538 0.00132396 0)
(22.0577 0.00100505 0)
(21.7606 0.000807262 0)
(21.5255 0.000671266 0)
(21.3365 0.000567139 0)
(21.1815 0.000490402 0)
(21.0511 0.000431639 0)
(20.9401 0.000383307 0)
(20.8449 0.000344291 0)
(20.762 0.000313255 0)
(20.6891 0.000287231 0)
(20.6245 0.000264234 0)
(20.5673 0.000244 0)
(20.5162 0.000226777 0)
(20.4704 0.000212289 0)
(20.4289 0.000199775 0)
(20.3913 0.000188515 0)
(20.3571 0.000178129 0)
(20.3259 0.000168533 0)
(20.2974 0.000159801 0)
(20.2714 0.000151992 0)
(20.2475 0.000145069 0)
(20.2255 0.000138914 0)
(20.2052 0.000133384 0)
(20.1864 0.000128331 0)
(20.1689 0.000123619 0)
(20.1528 0.000119178 0)
(20.1377 0.00011497 0)
(20.1237 0.000110918 0)
(20.1107 0.000107019 0)
(20.0986 0.000103305 0)
(20.0874 9.96825e-05 0)
(20.0769 9.61089e-05 0)
(20.0672 9.25779e-05 0)
(20.0582 8.89293e-05 0)
(20.0499 8.50514e-05 0)
(20.0423 8.08417e-05 0)
(20.0353 7.61649e-05 0)
(20.029 7.06112e-05 0)
(20.0235 6.39802e-05 0)
(20.0186 5.64402e-05 0)
(20.0146 4.70963e-05 0)
(20.0116 3.53793e-05 0)
(20.0095 2.17732e-05 0)
(20.0085 4.83128e-06 0)
(20.0088 -1.58222e-05 0)
(20.0104 -4.03639e-05 0)
(20.0136 -7.10002e-05 0)
(20.0186 -0.000107095 0)
(20.0257 -0.000149783 0)
(20.035 -0.00020074 0)
(20.0468 -0.000261387 0)
(20.0616 -0.000333115 0)
(20.0795 -0.000417575 0)
(20.101 -0.000515975 0)
(20.1264 -0.000632128 0)
(20.1565 -0.00076673 0)
(20.1912 -0.000924898 0)
(20.232 -0.00111034 0)
(20.2711 -0.00129178 0)
(20.3049 -0.00145007 0)
(20.3407 -0.00161896 0)
(20.3786 -0.00180583 0)
(20.4188 -0.00200808 0)
(20.4612 -0.00222565 0)
(20.5058 -0.00246296 0)
(20.5528 -0.00271714 0)
(20.6018 -0.00299951 0)
(20.6536 -0.0032967 0)
(20.7069 -0.00363943 0)
(20.764 -0.00398962 0)
(20.8217 -0.00441852 0)
(20.8852 -0.00483861 0)
(20.947 -0.00539985 0)
(21.0191 -0.00594555 0)
(21.0849 -0.00667269 0)
(21.1731 -0.00753618 0)
(21.2462 -0.00841442 0)
(21.3453 -0.0107235 0)
(21.4393 -0.010565 0)
(21.5401 -0.0201205 0)
(21.7484 -0.0130911 0)
(21.7614 -0.0654449 0)
(22.4575 -0.203001 0)
(32.3815 0.0583224 0)
(27.5094 0.0111358 0)
(25.783 0.00443299 0)
(24.8355 0.00279734 0)
(24.2225 0.00197723 0)
(23.7936 0.00149403 0)
(23.4739 0.0011958 0)
(23.2222 0.000991816 0)
(23.0206 0.000836492 0)
(22.8558 0.0007221 0)
(22.7174 0.000634751 0)
(22.6 0.00056318 0)
(22.4994 0.000505421 0)
(22.412 0.000459475 0)
(22.3351 0.000421044 0)
(22.2672 0.000387182 0)
(22.2071 0.000357412 0)
(22.1535 0.000332053 0)
(22.1053 0.000310711 0)
(22.0619 0.000292296 0)
(22.0224 0.000275758 0)
(21.9866 0.000260531 0)
(21.9539 0.000246474 0)
(21.9241 0.00023368 0)
(21.8969 0.000222231 0)
(21.8719 0.000212074 0)
(21.8489 0.000203044 0)
(21.8276 0.000194935 0)
(21.808 0.000187529 0)
(21.7897 0.000180643 0)
(21.7728 0.000174168 0)
(21.7571 0.000167991 0)
(21.7425 0.000162047 0)
(21.7289 0.000156397 0)
(21.7162 0.000150957 0)
(21.7045 0.000145634 0)
(21.6935 0.000140472 0)
(21.6834 0.000135299 0)
(21.674 0.000129933 0)
(21.6653 0.000124333 0)
(21.6573 0.000118199 0)
(21.65 0.000111313 0)
(21.6434 0.000103277 0)
(21.6376 9.37563e-05 0)
(21.6325 8.27049e-05 0)
(21.6282 6.90643e-05 0)
(21.625 5.22361e-05 0)
(21.6227 3.23694e-05 0)
(21.6216 7.88455e-06 0)
(21.6217 -2.20172e-05 0)
(21.6233 -5.81354e-05 0)
(21.6265 -0.000102147 0)
(21.6316 -0.00015417 0)
(21.6387 -0.000216223 0)
(21.6481 -0.000290231 0)
(21.6602 -0.000378539 0)
(21.6752 -0.000482315 0)
(21.6935 -0.00060464 0)
(21.7155 -0.000747226 0)
(21.7414 -0.000915613 0)
(21.7721 -0.00111047 0)
(21.8076 -0.00133999 0)
(21.8492 -0.00160867 0)
(21.889 -0.00187114 0)
(21.9235 -0.00210125 0)
(21.96 -0.00234516 0)
(21.9988 -0.00261522 0)
(22.0398 -0.00290801 0)
(22.0831 -0.0032225 0)
(22.1286 -0.0035659 0)
(22.1765 -0.00393269 0)
(22.2265 -0.00434122 0)
(22.2793 -0.004769 0)
(22.3337 -0.00526498 0)
(22.3919 -0.00576664 0)
(22.4506 -0.0063884 0)
(22.5152 -0.0069849 0)
(22.578 -0.00780015 0)
(22.6512 -0.00856337 0)
(22.718 -0.00962318 0)
(22.8042 -0.0108086 0)
(22.8773 -0.012083 0)
(22.9773 -0.0152339 0)
(23.0694 -0.0151535 0)
(23.1772 -0.0277966 0)
(23.3544 -0.0198992 0)
(23.4476 -0.0824837 0)
(23.8326 -0.212808 0)
(34.3784 0.0708268 0)
(29.3124 0.0160125 0)
(27.3875 0.00653051 0)
(26.3431 0.00405964 0)
(25.6738 0.00284825 0)
(25.2082 0.00214183 0)
(24.8629 0.00170781 0)
(24.5923 0.00141247 0)
(24.3762 0.0011889 0)
(24.1999 0.00102437 0)
(24.0524 0.000899089 0)
(23.9273 0.000796864 0)
(23.8203 0.000714408 0)
(23.7275 0.000648812 0)
(23.6461 0.000594092 0)
(23.5742 0.00054603 0)
(23.5105 0.000503822 0)
(23.4538 0.000467847 0)
(23.403 0.000437554 0)
(23.3571 0.000411442 0)
(23.3154 0.000388044 0)
(23.2776 0.000366542 0)
(23.2432 0.000346712 0)
(23.2118 0.000328664 0)
(23.183 0.000312505 0)
(23.1567 0.000298163 0)
(23.1325 0.000285408 0)
(23.1101 0.000273958 0)
(23.0894 0.000263509 0)
(23.0702 0.000253806 0)
(23.0524 0.000244693 0)
(23.0358 0.000236011 0)
(23.0205 0.000227655 0)
(23.0061 0.000219718 0)
(22.9928 0.000212085 0)
(22.9805 0.000204606 0)
(22.969 0.00019736 0)
(22.9583 0.00019011 0)
(22.9484 0.000182583 0)
(22.9392 0.000174721 0)
(22.9308 0.000166156 0)
(22.9231 0.0001565 0)
(22.9161 0.000145239 0)
(22.9099 0.000132091 0)
(22.9045 0.000116672 0)
(22.9 9.75528e-05 0)
(22.8965 7.42792e-05 0)
(22.894 4.65622e-05 0)
(22.8927 1.24493e-05 0)
(22.8927 -2.89908e-05 0)
(22.8941 -7.94109e-05 0)
(22.8973 -0.000140408 0)
(22.9024 -0.000212517 0)
(22.9095 -0.000298911 0)
(22.9191 -0.000401799 0)
(22.9313 -0.00052464 0)
(22.9466 -0.000668766 0)
(22.9651 -0.000838695 0)
(22.9875 -0.00103671 0)
(23.014 -0.00127064 0)
(23.0453 -0.00154109 0)
(23.0815 -0.00186001 0)
(23.1239 -0.00223273 0)
(23.1643 -0.00259688 0)
(23.1995 -0.00291737 0)
(23.2367 -0.00325504 0)
(23.2762 -0.00362893 0)
(23.318 -0.00403491 0)
(23.3621 -0.00447041 0)
(23.4085 -0.00494638 0)
(23.4573 -0.00545348 0)
(23.5081 -0.00601938 0)
(23.5619 -0.00660952 0)
(23.6172 -0.00729628 0)
(23.6763 -0.00798553 0)
(23.7359 -0.00884666 0)
(23.8015 -0.00966075 0)
(23.8652 -0.0107897 0)
(23.9393 -0.0118173 0)
(24.0068 -0.0133001 0)
(24.0929 -0.0148815 0)
(24.1659 -0.0166592 0)
(24.2677 -0.0207112 0)
(24.3548 -0.0210116 0)
(24.4752 -0.0363773 0)
(24.6116 -0.0296988 0)
(24.7873 -0.0969983 0)
(24.9404 -0.228481 0)
(36.1321 0.0843317 0)
(30.9787 0.0222444 0)
(28.8596 0.00935151 0)
(27.7118 0.00574534 0)
(26.981 0.00400364 0)
(26.4751 0.00299698 0)
(26.1014 0.00238083 0)
(25.8097 0.0019635 0)
(25.5774 0.00164942 0)
(25.3883 0.00141844 0)
(25.2304 0.001243 0)
(25.0969 0.00110044 0)
(24.9827 0.000985525 0)
(24.8839 0.000894097 0)
(24.7973 0.000818016 0)
(24.7208 0.000751409 0)
(24.6532 0.000692992 0)
(24.5931 0.000643179 0)
(24.5392 0.000601212 0)
(24.4905 0.000565068 0)
(24.4464 0.000532747 0)
(24.4064 0.000503109 0)
(24.37 0.000475807 0)
(24.3368 0.000450964 0)
(24.3064 0.00042871 0)
(24.2786 0.000408947 0)
(24.253 0.000391367 0)
(24.2293 0.000375589 0)
(24.2075 0.000361204 0)
(24.1872 0.00034786 0)
(24.1684 0.000335343 0)
(24.1509 0.000323435 0)
(24.1347 0.00031198 0)
(24.1196 0.000301102 0)
(24.1055 0.000290654 0)
(24.0925 0.000280416 0)
(24.0803 0.000270497 0)
(24.069 0.00026059 0)
(24.0586 0.000250311 0)
(24.0489 0.00023957 0)
(24.0399 0.000227916 0)
(24.0318 0.000214766 0)
(24.0244 0.000199444 0)
(24.0178 0.000181701 0)
(24.0121 0.000160801 0)
(24.0073 0.000134847 0)
(24.0034 0.000103477 0)
(24.0007 6.59403e-05 0)
(23.9991 1.97837e-05 0)
(23.9989 -3.60822e-05 0)
(24.0003 -0.000104266 0)
(24.0033 -0.000186504 0)
(24.0083 -0.000283736 0)
(24.0154 -0.000400455 0)
(24.025 -0.000539317 0)
(24.0373 -0.000705123 0)
(24.0528 -0.000899526 0)
(24.0715 -0.00112878 0)
(24.0943 -0.00139578 0)
(24.1211 -0.00171127 0)
(24.1529 -0.00207575 0)
(24.1896 -0.00250569 0)
(24.2326 -0.00300723 0)
(24.2736 -0.00349745 0)
(24.3094 -0.00393046 0)
(24.3471 -0.00438451 0)
(24.3872 -0.00488671 0)
(24.4296 -0.00543268 0)
(24.4744 -0.00601772 0)
(24.5214 -0.00665744 0)
(24.5709 -0.00733755 0)
(24.6224 -0.00809739 0)
(24.6769 -0.00888724 0)
(24.7329 -0.00980832 0)
(24.7927 -0.0107277 0)
(24.853 -0.0118814 0)
(24.9193 -0.0129618 0)
(24.9836 -0.0144713 0)
(25.0582 -0.01582 0)
(25.1262 -0.0178141 0)
(25.2127 -0.0198536 0)
(25.2849 -0.0222959 0)
(25.389 -0.0272429 0)
(25.4694 -0.0284418 0)
(25.6036 -0.0457621 0)
(25.7014 -0.0428823 0)
(25.936 -0.110063 0)
(25.9582 -0.245862 0)
(37.7095 0.098659 0)
(32.5857 0.0300299 0)
(30.2818 0.0130948 0)
(29.0233 0.00798184 0)
(28.225 0.00552915 0)
(27.6742 0.00412167 0)
(27.2687 0.00326263 0)
(26.9533 0.00268318 0)
(26.7027 0.00224951 0)
(26.4992 0.00193079 0)
(26.3296 0.00168923 0)
(26.1864 0.00149372 0)
(26.0642 0.00133627 0)
(25.9586 0.00121097 0)
(25.8661 0.00110694 0)
(25.7846 0.00101617 0)
(25.7125 0.000936681 0)
(25.6485 0.00086888 0)
(25.5911 0.000811724 0)
(25.5394 0.000762535 0)
(25.4926 0.000718639 0)
(25.4501 0.000678472 0)
(25.4114 0.000641523 0)
(25.3762 0.000607913 0)
(25.344 0.000577796 0)
(25.3145 0.000551036 0)
(25.2874 0.000527226 0)
(25.2623 0.00050586 0)
(25.2392 0.000486396 0)
(25.2177 0.00046836 0)
(25.1978 0.000451462 0)
(25.1793 0.000435409 0)
(25.1621 0.000419984 0)
(25.1461 0.000405339 0)
(25.1312 0.000391286 0)
(25.1174 0.000377529 0)
(25.1045 0.000364201 0)
(25.0926 0.00035091 0)
(25.0815 0.000337145 0)
(25.0712 0.000322766 0)
(25.0618 0.000307213 0)
(25.0531 0.000289684 0)
(25.0452 0.000269301 0)
(25.0382 0.000245787 0)
(25.0321 0.000218054 0)
(25.0269 0.00018366 0)
(25.0227 0.00014223 0)
(25.0196 9.25222e-05 0)
(25.0178 3.148e-05 0)
(25.0174 -4.2243e-05 0)
(25.0185 -0.000132301 0)
(25.0214 -0.000240784 0)
(25.0262 -0.000369093 0)
(25.0333 -0.000523197 0)
(25.0428 -0.000706391 0)
(25.0551 -0.000925095 0)
(25.0706 -0.00118143 0)
(25.0895 -0.00148379 0)
(25.1124 -0.00183574 0)
(25.1394 -0.00225159 0)
(25.1715 -0.00273176 0)
(25.2086 -0.0032981 0)
(25.2521 -0.00395758 0)
(25.2935 -0.00460239 0)
(25.3295 -0.00517371 0)
(25.3677 -0.00577082 0)
(25.4082 -0.00642999 0)
(25.4511 -0.00714721 0)
(25.4963 -0.00791504 0)
(25.5437 -0.00875482 0)
(25.5937 -0.0096461 0)
(25.6457 -0.0106422 0)
(25.7006 -0.0116754 0)
(25.757 -0.012881 0)
(25.8173 -0.0140804 0)
(25.8779 -0.0155871 0)
(25.9445 -0.0169912 0)
(26.0092 -0.018957 0)
(26.084 -0.0206925 0)
(26.1522 -0.0233026 0)
(26.2389 -0.0258591 0)
(26.31 -0.0291717 0)
(26.4162 -0.03495 0)
(26.4897 -0.03771 0)
(26.635 -0.0561201 0)
(26.704 -0.059242 0)
(26.9661 -0.12355 0)
(26.9327 -0.261768 0)
(39.1289 0.1135 0)
(34.1697 0.0395642 0)
(31.6984 0.0180126 0)
(30.3224 0.0109423 0)
(29.4496 0.00754345 0)
(28.8485 0.00560255 0)
(28.407 0.00442003 0)
(28.0646 0.00362508 0)
(27.7931 0.00303329 0)
(27.573 0.00259856 0)
(27.39 0.00226963 0)
(27.2357 0.00200445 0)
(27.1043 0.00179111 0)
(26.9908 0.00162129 0)
(26.8915 0.00148058 0)
(26.8042 0.00135821 0)
(26.7271 0.00125125 0)
(26.6586 0.00116001 0)
(26.5973 0.00108304 0)
(26.5421 0.00101684 0)
(26.4921 0.000957871 0)
(26.4468 0.000904039 0)
(26.4056 0.000854601 0)
(26.368 0.000809655 0)
(26.3337 0.000769373 0)
(26.3023 0.000733564 0)
(26.2734 0.000701691 0)
(26.2467 0.000673092 0)
(26.2221 0.000647056 0)
(26.1993 0.000622959 0)
(26.1781 0.000600409 0)
(26.1584 0.000579019 0)
(26.1401 0.000558498 0)
(26.1232 0.000539019 0)
(26.1074 0.000520348 0)
(26.0927 0.000502099 0)
(26.079 0.000484419 0)
(26.0663 0.000466819 0)
(26.0545 0.000448638 0)
(26.0435 0.000429666 0)
(26.0335 0.000409199 0)
(26.0242 0.000386196 0)
(26.0158 0.000359518 0)
(26.0083 0.000328798 0)
(26.0017 0.00029258 0)
(25.996 0.000247802 0)
(25.9914 0.000193945 0)
(25.988 0.000129238 0)
(25.9858 4.99027e-05 0)
(25.9851 -4.57943e-05 0)
(25.9859 -0.000162639 0)
(25.9886 -0.000303325 0)
(25.9932 -0.000469826 0)
(26.0001 -0.000669746 0)
(26.0095 -0.000907231 0)
(26.0217 -0.00119064 0)
(26.0371 -0.00152279 0)
(26.056 -0.00191462 0)
(26.0789 -0.00237051 0)
(26.106 -0.00290904 0)
(26.1382 -0.00353063 0)
(26.1754 -0.00426351 0)
(26.2191 -0.00511559 0)
(26.2607 -0.00594878 0)
(26.297 -0.00668878 0)
(26.3354 -0.00746071 0)
(26.3761 -0.00831079 0)
(26.4191 -0.00923617 0)
(26.4646 -0.0102261 0)
(26.5122 -0.0113088 0)
(26.5624 -0.0124563 0)
(26.6146 -0.0137385 0)
(26.6697 -0.0150667 0)
(26.7263 -0.0166151 0)
(26.7867 -0.0181538 0)
(26.8475 -0.0200835 0)
(26.9142 -0.0218799 0)
(26.9789 -0.0243892 0)
(27.0536 -0.0265883 0)
(27.1216 -0.0299387 0)
(27.2083 -0.0330779 0)
(27.2781 -0.0375013 0)
(27.3854 -0.0440406 0)
(27.4535 -0.0490343 0)
(27.6045 -0.0679016 0)
(27.6567 -0.0783194 0)
(27.92 -0.138951 0)
(27.8716 -0.275648 0)
(40.3792 0.128333 0)
(35.7428 0.0509809 0)
(33.1354 0.0244075 0)
(31.6372 0.0148549 0)
(30.6827 0.0102073 0)
(30.0252 0.00755833 0)
(29.5427 0.00594515 0)
(29.1695 0.00486335 0)
(28.8739 0.00406198 0)
(28.6345 0.0034734 0)
(28.4359 0.00302856 0)
(28.2688 0.00267128 0)
(28.1265 0.00238418 0)
(28.0038 0.00215552 0)
(27.8967 0.00196638 0)
(27.8026 0.00180246 0)
(27.7195 0.0016595 0)
(27.6458 0.00153754 0)
(27.5799 0.00143458 0)
(27.5205 0.00134605 0)
(27.4669 0.00126735 0)
(27.4182 0.00119568 0)
(27.374 0.00112998 0)
(27.3338 0.00107029 0)
(27.297 0.0010168 0)
(27.2634 0.000969221 0)
(27.2324 0.000926857 0)
(27.2039 0.000888843 0)
(27.1775 0.000854256 0)
(27.1531 0.000822282 0)
(27.1305 0.000792397 0)
(27.1094 0.000764099 0)
(27.0899 0.000737005 0)
(27.0717 0.000711291 0)
(27.0548 0.000686677 0)
(27.0391 0.00066267 0)
(27.0245 0.000639414 0)
(27.0109 0.000616309 0)
(26.9982 0.000592521 0)
(26.9865 0.000567733 0)
(26.9757 0.000541069 0)
(26.9658 0.000511212 0)
(26.9568 0.000476706 0)
(26.9486 0.000437004 0)
(26.9415 0.000390267 0)
(26.9353 0.00033273 0)
(26.9302 0.000263573 0)
(26.9263 0.000180438 0)
(26.9237 7.8693e-05 0)
(26.9226 -4.39412e-05 0)
(26.923 -0.000193476 0)
(26.9253 -0.000373509 0)
(26.9297 -0.000586736 0)
(26.9363 -0.000842588 0)
(26.9454 -0.0011463 0)
(26.9574 -0.00150853 0)
(26.9726 -0.00193306 0)
(26.9913 -0.00243393 0)
(27.0141 -0.00301643 0)
(27.0411 -0.00370425 0)
(27.0732 -0.00449799 0)
(27.1104 -0.00543332 0)
(27.1541 -0.00651939 0)
(27.1957 -0.00758114 0)
(27.232 -0.00852568 0)
(27.2704 -0.00951035 0)
(27.3111 -0.0105917 0)
(27.3542 -0.0117691 0)
(27.3996 -0.0130278 0)
(27.4472 -0.014404 0)
(27.4974 -0.0158613 0)
(27.5496 -0.0174882 0)
(27.6046 -0.0191729 0)
(27.6611 -0.0211325 0)
(27.7214 -0.0230812 0)
(27.7821 -0.0255151 0)
(27.8484 -0.0277857 0)
(27.913 -0.030939 0)
(27.9872 -0.0336943 0)
(28.0548 -0.0379258 0)
(28.141 -0.0417346 0)
(28.2097 -0.0475191 0)
(28.3167 -0.0548124 0)
(28.3814 -0.0625876 0)
(28.5323 -0.0816818 0)
(28.5776 -0.0997452 0)
(28.826 -0.156905 0)
(28.7784 -0.288406 0)
(41.4271 0.142363 0)
(37.2974 0.0642567 0)
(34.6065 0.0326134 0)
(32.9871 0.0200101 0)
(31.9444 0.0137335 0)
(31.224 0.0101487 0)
(30.6952 0.00796288 0)
(30.2867 0.00649904 0)
(29.9633 0.00541939 0)
(29.7016 0.00462625 0)
(29.4848 0.00402709 0)
(29.3026 0.00354752 0)
(29.1476 0.0031626 0)
(29.0141 0.00285578 0)
(28.8977 0.00260232 0)
(28.7956 0.00238342 0)
(28.7054 0.00219297 0)
(28.6255 0.00203051 0)
(28.5541 0.00189323 0)
(28.4899 0.0017752 0)
(28.4319 0.00167047 0)
(28.3793 0.00157532 0)
(28.3316 0.0014883 0)
(28.2881 0.00140934 0)
(28.2484 0.00133856 0)
(28.2121 0.00127558 0)
(28.1787 0.00121947 0)
(28.1479 0.00116911 0)
(28.1195 0.00112332 0)
(28.0932 0.00108103 0)
(28.0688 0.00104156 0)
(28.0461 0.00100426 0)
(28.0251 0.000968624 0)
(28.0055 0.00093482 0)
(27.9873 0.000902511 0)
(27.9704 0.000871082 0)
(27.9546 0.000840642 0)
(27.9399 0.000810471 0)
(27.9263 0.00077953 0)
(27.9137 0.000747354 0)
(27.902 0.000712849 0)
(27.8912 0.000674392 0)
(27.8814 0.000630134 0)
(27.8726 0.000579252 0)
(27.8647 0.00051948 0)
(27.8579 0.000446268 0)
(27.8522 0.000358321 0)
(27.8477 0.000252601 0)
(27.8446 0.000123475 0)
(27.843 -3.20768e-05 0)
(27.8429 -0.000221394 0)
(27.8448 -0.000449321 0)
(27.8487 -0.000719491 0)
(27.8549 -0.00104338 0)
(27.8637 -0.00142758 0)
(27.8753 -0.00188548 0)
(27.8902 -0.00242214 0)
(27.9086 -0.00305535 0)
(27.9311 -0.00379148 0)
(27.9578 -0.00466027 0)
(27.9896 -0.00566272 0)
(28.0266 -0.00684313 0)
(28.07 -0.00821251 0)
(28.1113 -0.00955045 0)
(28.1474 -0.0107417 0)
(28.1856 -0.0119843 0)
(28.2262 -0.0133448 0)
(28.269 -0.014826 0)
(28.3143 -0.0164088 0)
(28.3617 -0.0181381 0)
(28.4116 -0.0199687 0)
(28.4635 -0.022009 0)
(28.5182 -0.0241231 0)
(28.5744 -0.0265736 0)
(28.6343 -0.0290168 0)
(28.6946 -0.0320483 0)
(28.7604 -0.0348918 0)
(28.8245 -0.0388027 0)
(28.8979 -0.0422289 0)
(28.965 -0.0474915 0)
(29.0499 -0.0520975 0)
(29.1179 -0.0594706 0)
(29.223 -0.0676295 0)
(29.2864 -0.0785364 0)
(29.4324 -0.0980069 0)
(29.4762 -0.123349 0)
(29.7031 -0.177516 0)
(29.6598 -0.300929 0)
(42.2225 0.154526 0)
(38.8039 0.0790735 0)
(36.1138 0.0429467 0)
(34.3849 0.0267612 0)
(33.25 0.0183981 0)
(32.4609 0.0135855 0)
(31.8802 0.010641 0)
(31.4316 0.0086688 0)
(31.0764 0.00721948 0)
(30.7889 0.00615399 0)
(30.5509 0.00534882 0)
(30.3511 0.00470633 0)
(30.1812 0.0041912 0)
(30.0349 0.0037801 0)
(29.9075 0.00344078 0)
(29.7959 0.00314871 0)
(29.6974 0.00289528 0)
(29.6101 0.00267912 0)
(29.5321 0.00249625 0)
(29.4621 0.00233898 0)
(29.3989 0.00219965 0)
(29.3416 0.00207342 0)
(29.2896 0.00195824 0)
(29.2423 0.00185387 0)
(29.1991 0.00176033 0)
(29.1596 0.00167705 0)
(29.1232 0.00160281 0)
(29.0898 0.00153616 0)
(29.0589 0.00147556 0)
(29.0303 0.00141967 0)
(29.0037 0.00136757 0)
(28.9791 0.00131844 0)
(28.9563 0.00127163 0)
(28.935 0.00122726 0)
(28.9152 0.00118492 0)
(28.8968 0.00114385 0)
(28.8797 0.00110411 0)
(28.8637 0.00106481 0)
(28.8489 0.0010247 0)
(28.8351 0.000983088 0)
(28.8224 0.00093863 0)
(28.8106 0.000889343 0)
(28.7999 0.000832909 0)
(28.7901 0.000768107 0)
(28.7814 0.000692179 0)
(28.7738 0.00059971 0)
(28.7674 0.000488726 0)
(28.7622 0.000355379 0)
(28.7584 0.000192878 0)
(28.7561 -2.78158e-06 0)
(28.7555 -0.00024039 0)
(28.7567 -0.000526415 0)