/*--------------------------------*- C++ -*----------------------------------*\
| =========                 |                                                 |
| \\      /  F ield         | OpenFOAM: The Open Source CFD Toolbox           |
|  \\    /   O peration     | Version:  v2006                                 |
|   \\  /    A nd           | Website:  www.openfoam.com                      |
|    \\/     M anipulation  |                                                 |
\*---------------------------------------------------------------------------*/
FoamFile
{
    version     2.0;
    format      ascii;
    class       volVectorField;
    location    "10000";
    object      U;
}
// * * * * * * * * * * * * * * * * * * * * * * * * * * * * * * * * * * * * * //

dimensions      [0 1 -1 0 0 0 0];


internalField   nonuniform List<vector> 
20540
(
(36.1418 -0.000176876 0)
(48.4928 0.00452591 0)
(36.1529 -0.000571217 0)
(48.4708 0.0134014 0)
(36.1822 -0.00104871 0)
(48.4163 0.0211686 0)
(36.2399 -0.00161223 0)
(48.3206 0.0278357 0)
(36.3399 -0.00227307 0)
(48.1744 0.0339327 0)
(36.5 -0.00304053 0)
(47.9675 0.0398354 0)
(36.741 -0.00391753 0)
(47.689 0.0455564 0)
(37.0854 -0.00489826 0)
(47.3289 0.050932 0)
(37.5534 -0.00596476 0)
(46.8801 0.0557319 0)
(38.1591 -0.00708252 0)
(46.3402 0.0596741 0)
(38.9075 -0.00819626 0)
(45.7152 0.0624379 0)
(39.7898 -0.0092269 0)
(45.0227 0.0637181 0)
(40.7735 -0.0100581 0)
(44.2953 0.0633199 0)
(41.778 -0.010485 0)
(43.5815 0.0612715 0)
(42.6472 -0.0101285 0)
(42.9501 0.0577606 0)
(43.1445 -0.0090292 0)
(42.601 0.0535864 0)
(43.0766 -0.00910624 0)
(42.9026 0.0531633 0)
(42.9634 -0.00928306 0)
(43.0339 0.0530721 0)
(43.0004 -0.0088893 0)
(42.972 0.051931 0)
(43.0036 -0.00870088 0)
(42.9748 0.0508986 0)
(43.001 -0.00832384 0)
(42.9786 0.049451 0)
(43.0014 -0.00798679 0)
(42.9796 0.0478234 0)
(43.0016 -0.00753261 0)
(42.9813 0.0458384 0)
(43.0017 -0.00702113 0)
(42.9833 0.0434808 0)
(43.0018 -0.00642881 0)
(42.9855 0.0406796 0)
(43.0019 -0.00575304 0)
(42.988 0.0373571 0)
(43.0021 -0.00499415 0)
(42.9908 0.0334264 0)
(43.0022 -0.00415247 0)
(42.9937 0.0287833 0)
(43.0024 -0.00323885 0)
(42.9967 0.0233041 0)
(43.0025 -0.00225241 0)
(42.9995 0.0168131 0)
(43.0026 -0.00129057 0)
(43.0014 0.00995587 0)
(43.0027 -0.000419293 0)
(43.0024 0.00332491 0)
(43.0027 0.000427779 0)
(43.0024 -0.00327405 0)
(43.0026 0.00130005 0)
(43.0014 -0.00990624 0)
(43.0025 0.00224563 0)
(42.9995 -0.0166572 0)
(43.0024 0.00320209 0)
(42.9969 -0.0229706 0)
(43.0022 0.0040904 0)
(42.994 -0.0283324 0)
(43.0021 0.00491056 0)
(42.9912 -0.0329012 0)
(43.002 0.00565403 0)
(42.9885 -0.0367916 0)
(43.0018 0.0063196 0)
(42.986 -0.0400993 0)
(43.0017 0.00690605 0)
(42.9838 -0.0429053 0)
(43.0016 0.00742074 0)
(42.9818 -0.0452835 0)
(43.0015 0.00786272 0)
(42.9802 -0.0472897 0)
(43.0012 0.00824648 0)
(42.9788 -0.0489805 0)
(43.0021 0.00853757 0)
(42.9769 -0.0503848 0)
(43.0036 0.00889213 0)
(42.9717 -0.0516521 0)
(42.9815 0.00900526 0)
(42.9952 -0.0524428 0)
(42.9879 0.00940323 0)
(43.0308 -0.0535632 0)
(43.1627 0.00884073 0)
(42.695 -0.0527214 0)
(42.9598 0.00960682 0)
(42.7122 -0.0555285 0)
(42.2828 0.0103945 0)
(43.2199 -0.0594726 0)
(41.3659 0.0103279 0)
(43.8719 -0.062265 0)
(40.3918 0.00972546 0)
(44.5723 -0.0636239 0)
(39.4727 0.00884165 0)
(45.267 -0.0633998 0)
(38.6622 0.00781511 0)
(45.9168 -0.0616509 0)
(37.981 0.0067357 0)
(46.4969 -0.0586005 0)
(37.433 0.00566811 0)
(46.995 -0.0545365 0)
(37.011 0.0046573 0)
(47.4079 -0.0497418 0)
(36.7006 0.00373072 0)
(47.739 -0.0444574 0)
(36.483 0.00290217 0)
(47.9956 -0.0388773 0)
(36.3379 0.00217552 0)
(48.1867 -0.0331317 0)
(36.2466 0.00154756 0)
(48.3221 -0.0271803 0)
(36.1935 0.00100973 0)
(48.4112 -0.0206528 0)
(36.1664 0.000551873 0)
(48.462 -0.0130619 0)
(36.156 0.000171357 0)
(48.4827 -0.00441185 0)
(4.8521 0.0053831 0)
(3.68097 1.57235e-05 0)
(3.39394 3.53458e-06 0)
(3.22168 2.35096e-06 0)
(3.10781 1.61326e-06 0)
(3.02708 1.22379e-06 0)
(2.96635 9.83529e-07 0)
(2.91809 8.10204e-07 0)
(2.87932 6.76109e-07 0)
(2.8475 5.81553e-07 0)
(2.82067 5.10546e-07 0)
(2.79784 4.51508e-07 0)
(2.77826 4.03842e-07 0)
(2.7612 3.6648e-07 0)
(2.74618 3.35279e-07 0)
(2.73289 3.07673e-07 0)
(2.72111 2.83544e-07 0)
(2.71061 2.63207e-07 0)
(2.70118 2.46194e-07 0)
(2.69265 2.31476e-07 0)
(2.6849 2.18281e-07 0)
(2.67786 2.06147e-07 0)
(2.67144 1.94976e-07 0)
(2.66559 1.8489e-07 0)
(2.66024 1.75938e-07 0)
(2.65533 1.68009e-07 0)
(2.6508 1.60962e-07 0)
(2.64662 1.54647e-07 0)
(2.64275 1.48952e-07 0)
(2.63917 1.39676e-07 0)
(2.63583 9.76077e-08 0)
(2.63269 5.45796e-08 0)
(2.62977 1.24768e-07 0)
(2.62713 1.63688e-07 0)
(2.62464 6.3451e-08 0)
(2.62228 1.07939e-07 0)
(2.62018 1.6321e-07 0)
(2.61818 3.59442e-08 0)
(2.61627 8.83863e-08 0)
(2.61462 1.56691e-07 0)
(2.61305 -5.66375e-09 0)
(2.61155 4.07632e-08 0)
(2.61032 9.75917e-08 0)
(2.60914 -1.51279e-07 0)
(2.60804 -8.27329e-08 0)
(2.60734 8.67798e-08 0)
(2.60674 -2.14796e-07 0)
(2.60623 -1.77465e-07 0)
(2.60619 1.52327e-08 0)
(2.60631 -3.16873e-07 0)
(2.60668 -3.60072e-07 0)
(2.60747 7.76712e-07 0)
(2.60893 -3.9157e-05 0)
(2.58981 -4.28785e-05 0)
(2.59095 -2.83822e-06 0)
(2.5938 -9.13732e-07 0)
(2.59695 -1.20619e-06 0)
(2.60087 -1.05048e-06 0)
(2.6057 -1.27938e-06 0)
(2.61132 -1.46421e-06 0)
(2.61805 -1.81004e-06 0)
(2.62575 -2.27099e-06 0)
(2.63488 -2.79601e-06 0)
(2.64375 -2.98044e-06 0)
(2.65148 -3.05057e-06 0)
(2.65953 -3.93401e-06 0)
(2.66813 -4.49537e-06 0)
(2.67727 -5.07583e-06 0)
(2.68694 -5.75958e-06 0)
(2.69715 -6.49162e-06 0)
(2.70794 -7.40023e-06 0)
(2.71927 -8.28995e-06 0)
(2.73127 -9.56859e-06 0)
(2.74375 -1.0648e-05 0)
(2.75713 -1.17555e-05 0)
(2.77093 -2.09176e-05 0)
(2.78582 9.78747e-05 0)
(2.8211 0.000124679 0)
(2.84148 2.72369e-07 0)
(2.85825 -2.19604e-05 0)
(2.88052 -4.7574e-05 0)
(2.89873 -3.73861e-05 0)
(2.9267 -8.41071e-05 0)
(2.95164 -0.000200857 0)
(2.96753 -0.000369553 0)
(3.02922 -0.000314749 0)
(3.05336 -0.00121306 0)
(3.0876 -0.0279834 0)
(14.554 0.0162239 0)
(11.5293 0.000709863 0)
(10.6637 0.000240227 0)
(10.1446 0.000156045 0)
(9.79927 0.000110037 0)
(9.55357 8.29743e-05 0)
(9.36844 6.63012e-05 0)
(9.22108 5.48823e-05 0)
(9.1025 4.61609e-05 0)
(9.00503 3.97897e-05 0)
(8.92278 3.49381e-05 0)
(8.85277 3.09488e-05 0)
(8.79265 2.77372e-05 0)
(8.74027 2.51947e-05 0)
(8.6941 2.30679e-05 0)
(8.65325 2.11893e-05 0)
(8.61701 1.95387e-05 0)
(8.58471 1.8137e-05 0)
(8.55567 1.6961e-05 0)
(8.52941 1.59473e-05 0)
(8.50555 1.50363e-05 0)
(8.48385 1.41967e-05 0)
(8.46408 1.34214e-05 0)
(8.44605 1.27168e-05 0)
(8.42956 1.20872e-05 0)
(8.41442 1.15299e-05 0)
(8.40047 1.10351e-05 0)
(8.38759 1.05912e-05 0)
(8.37565 1.0186e-05 0)
(8.36458 9.79934e-06 0)
(8.35429 9.34533e-06 0)
(8.34465 8.90106e-06 0)
(8.33568 8.77672e-06 0)
(8.32751 8.58881e-06 0)
(8.31981 8.03107e-06 0)
(8.31257 7.86614e-06 0)
(8.30602 7.74685e-06 0)
(8.29984 7.13097e-06 0)
(8.294 6.98245e-06 0)
(8.28882 6.87534e-06 0)
(8.28395 6.12378e-06 0)
(8.27935 5.86797e-06 0)
(8.27546 5.64209e-06 0)
(8.27176 4.51189e-06 0)
(8.26837 3.95291e-06 0)
(8.26608 3.67355e-06 0)
(8.26409 2.06913e-06 0)
(8.26244 9.41686e-07 0)
(8.26211 1.99289e-07 0)
(8.26228 -2.2688e-06 0)
(8.26327 -4.34311e-06 0)
(8.26542 -3.626e-06 0)
(8.26964 -0.000109992 0)
(8.23166 -0.000124114 0)
(8.23487 -2.42045e-05 0)
(8.24301 -2.38038e-05 0)
(8.25232 -3.00411e-05 0)
(8.26387 -3.64142e-05 0)
(8.27799 -4.50001e-05 0)
(8.29456 -5.48582e-05 0)
(8.3143 -6.66857e-05 0)
(8.33696 -8.08262e-05 0)
(8.36387 -9.76236e-05 0)
(8.38999 -0.000113068 0)
(8.41262 -0.000126035 0)
(8.43625 -0.000142301 0)
(8.46141 -0.000159452 0)
(8.48812 -0.000177855 0)
(8.51635 -0.000197911 0)
(8.54611 -0.000219818 0)
(8.5775 -0.000243785 0)
(8.61038 -0.000270134 0)
(8.64514 -0.000299031 0)
(8.68119 -0.000331379 0)
(8.71973 -0.00036438 0)
(8.75929 -0.000426926 0)
(8.80143 -0.000139289 0)
(8.8756 -0.000105785 0)
(8.9317 -0.000489564 0)
(8.97837 -0.000626575 0)
(9.03906 -0.000768625 0)
(9.08859 -0.000834473 0)
(9.1626 -0.00113759 0)
(9.22882 -0.00154628 0)
(9.29009 -0.00286642 0)
(9.44551 -0.00254217 0)
(9.46373 -0.00377023 0)
(10.1779 -0.149199 0)
(22.5865 0.0273494 0)
(18.7424 0.00240989 0)
(17.547 0.000882704 0)
(16.8238 0.000577684 0)
(16.3358 0.000411634 0)
(15.9851 0.000312239 0)
(15.7191 0.000250473 0)
(15.5061 0.000208002 0)
(15.334 0.000175423 0)
(15.1919 0.0001515 0)
(15.0718 0.000133223 0)
(14.9692 0.000118165 0)
(14.8809 0.000106016 0)
(14.8038 9.63813e-05 0)
(14.7358 8.8312e-05 0)
(14.6755 8.11761e-05 0)
(14.622 7.48964e-05 0)
(14.5742 6.95556e-05 0)
(14.5313 6.5071e-05 0)
(14.4923 6.12041e-05 0)
(14.457 5.77273e-05 0)
(14.4248 5.45202e-05 0)
(14.3954 5.15566e-05 0)
(14.3687 4.88601e-05 0)
(14.3442 4.6449e-05 0)
(14.3217 4.43138e-05 0)
(14.3009 4.24173e-05 0)
(14.2818 4.07153e-05 0)
(14.264 3.9161e-05 0)
(14.2475 3.76994e-05 0)
(14.2323 3.61617e-05 0)
(14.2181 3.46909e-05 0)
(14.2049 3.38027e-05 0)
(14.1926 3.27949e-05 0)
(14.1811 3.12083e-05 0)
(14.1705 3.03366e-05 0)
(14.1606 2.94985e-05 0)
(14.1514 2.78446e-05 0)
(14.143 2.70046e-05 0)
(14.1351 2.61365e-05 0)
(14.1278 2.41124e-05 0)
(14.1213 2.2909e-05 0)
(14.1153 2.15014e-05 0)
(14.11 1.8299e-05 0)
(14.1055 1.6281e-05 0)
(14.1017 1.44429e-05 0)
(14.0987 9.42216e-06 0)
(14.0967 5.30247e-06 0)
(14.0958 1.58041e-06 0)
(14.0959 -6.28389e-06 0)
(14.0976 -1.37776e-05 0)
(14.1006 -1.72706e-05 0)
(14.1059 -0.000204543 0)
(14.122 -0.000239174 0)
(14.1301 -7.75928e-05 0)
(14.1413 -8.50505e-05 0)
(14.1553 -0.000107527 0)
(14.1724 -0.000132486 0)
(14.1928 -0.000163469 0)
(14.217 -0.000199741 0)
(14.2456 -0.000242576 0)
(14.2787 -0.000293265 0)
(14.3172 -0.000352585 0)
(14.3539 -0.000408316 0)
(14.386 -0.000457175 0)
(14.42 -0.000513467 0)
(14.456 -0.000573828 0)
(14.4942 -0.000638808 0)
(14.5345 -0.000709112 0)
(14.577 -0.000785712 0)
(14.6216 -0.000868566 0)
(14.6683 -0.000959985 0)
(14.7176 -0.001058 0)
(14.7685 -0.00116939 0)
(14.8228 -0.00128227 0)
(14.878 -0.00145599 0)
(14.9377 -0.00111553 0)
(14.9856 -0.00112741 0)
(15.0544 -0.00178019 0)
(15.1183 -0.00214377 0)
(15.1998 -0.00250848 0)
(15.268 -0.00277121 0)
(15.3665 -0.00360484 0)
(15.4545 -0.00410191 0)
(15.5744 -0.00777334 0)
(15.7807 -0.00572058 0)
(15.7785 -0.0199273 0)
(16.8208 -0.190508 0)
(27.5582 0.0374197 0)
(23.2599 0.00476339 0)
(21.884 0.00182311 0)
(21.0842 0.00118275 0)
(20.5523 0.000844169 0)
(20.1732 0.000641582 0)
(19.887 0.000515577 0)
(19.6591 0.000428946 0)
(19.4752 0.000362435 0)
(19.3239 0.000313442 0)
(19.1961 0.00027599 0)
(19.0871 0.000245121 0)
(18.9934 0.00022016 0)
(18.9117 0.00020033 0)
(18.8396 0.000183725 0)
(18.7758 0.000169037 0)
(18.7191 0.000156091 0)
(18.6685 0.000145058 0)
(18.623 0.000135783 0)
(18.5819 0.000127784 0)
(18.5445 0.000120594 0)
(18.5104 0.00011396 0)
(18.4794 0.000107825 0)
(18.4511 0.000102235 0)
(18.4252 9.72309e-05 0)
(18.4014 9.27947e-05 0)
(18.3795 8.88524e-05 0)
(18.3593 8.53136e-05 0)
(18.3405 8.20821e-05 0)
(18.3231 7.9072e-05 0)
(18.307 7.61716e-05 0)
(18.292 7.3405e-05 0)
(18.2781 7.09578e-05 0)
(18.2651 6.85519e-05 0)
(18.253 6.59919e-05 0)
(18.2418 6.37671e-05 0)
(18.2313 6.15939e-05 0)
(18.2217 5.90982e-05 0)
(18.2127 5.68642e-05 0)
(18.2044 5.45229e-05 0)
(18.1968 5.15476e-05 0)
(18.1899 4.8596e-05 0)
(18.1836 4.52657e-05 0)
(18.1781 4.06575e-05 0)
(18.1735 3.56052e-05 0)
(18.1694 3.00918e-05 0)
(18.1663 2.22603e-05 0)
(18.1644 1.31674e-05 0)
(18.1633 3.08489e-06 0)
(18.1635 -1.08009e-05 0)
(18.1653 -2.65263e-05 0)
(18.1685 -4.27785e-05 0)
(18.1736 -0.000127837 0)
(18.2029 -0.000164605 0)
(18.2131 -0.000137354 0)
(18.2249 -0.000171368 0)
(18.2398 -0.000216599 0)
(18.2578 -0.000270565 0)
(18.2793 -0.00033426 0)
(18.3048 -0.000409202 0)
(18.3349 -0.000496481 0)
(18.3698 -0.00059948 0)
(18.4102 -0.000721037 0)
(18.4485 -0.000837756 0)
(18.4821 -0.000938556 0)
(18.5178 -0.00104904 0)
(18.5556 -0.00117075 0)
(18.5958 -0.00130216 0)
(18.6381 -0.00144379 0)
(18.6827 -0.00159812 0)
(18.7296 -0.00176398 0)
(18.7785 -0.00194765 0)
(18.8302 -0.00214224 0)
(18.8836 -0.00236515 0)
(18.9406 -0.00259335 0)
(18.9983 -0.00289289 0)
(19.0615 -0.00304265 0)
(19.1087 -0.00331361 0)
(19.1787 -0.00379637 0)
(19.2447 -0.00433624 0)
(19.3293 -0.00495165 0)
(19.4014 -0.00547626 0)
(19.5022 -0.00704218 0)
(19.5967 -0.00699439 0)
(19.711 -0.0137692 0)
(19.9377 -0.00839275 0)
(19.9059 -0.0462616 0)
(20.9006 -0.199892 0)
(30.7817 0.0477938 0)
(26.0922 0.00763354 0)
(24.5223 0.00299173 0)
(23.6422 0.00191564 0)
(23.0665 0.0013623 0)
(22.6605 0.00103342 0)
(22.3564 0.00082938 0)
(22.1156 0.000689509 0)
(21.9222 0.000582431 0)
(21.7636 0.000503492 0)
(21.6302 0.000443226 0)
(21.5166 0.00039366 0)
(21.4191 0.000353553 0)
(21.3343 0.000321666 0)
(21.2597 0.000295003 0)
(21.1936 0.000271458 0)
(21.135 0.000250701 0)
(21.0827 0.000232992 0)
(21.0358 0.000218092 0)
(20.9933 0.000205248 0)
(20.9548 0.000193718 0)
(20.9197 0.000183089 0)
(20.8878 0.00017326 0)
(20.8586 0.000164301 0)
(20.832 0.000156272 0)
(20.8075 0.000149149 0)
(20.785 0.000142818 0)
(20.7642 0.000137135 0)
(20.7449 0.000131947 0)
(20.727 0.000127127 0)
(20.7104 0.000122575 0)
(20.695 0.000118244 0)
(20.6807 0.000114127 0)
(20.6673 0.000110156 0)
(20.6549 0.000106304 0)
(20.6434 0.000102611 0)
(20.6327 9.8971e-05 0)
(20.6227 9.52891e-05 0)
(20.6135 9.15621e-05 0)
(20.6049 8.76147e-05 0)
(20.5971 8.32547e-05 0)
(20.59 7.84035e-05 0)
(20.5835 7.28931e-05 0)
(20.5778 6.616e-05 0)
(20.573 5.79899e-05 0)
(20.5688 4.86439e-05 0)
(20.5656 3.69014e-05 0)
(20.5635 2.24151e-05 0)
(20.5623 5.49026e-06 0)
(20.5626 -1.59109e-05 0)
(20.5643 -4.11925e-05 0)
(20.5675 -7.16075e-05 0)
(20.5727 -0.000112638 0)
(20.5897 -0.000157324 0)
(20.5998 -0.000207389 0)
(20.6118 -0.000269463 0)
(20.6269 -0.00034178 0)
(20.6452 -0.000428436 0)
(20.6671 -0.000529435 0)
(20.693 -0.000648586 0)
(20.7237 -0.000786682 0)
(20.7591 -0.000949495 0)
(20.8005 -0.00114119 0)
(20.8397 -0.0013272 0)
(20.874 -0.0014886 0)
(20.9104 -0.00166159 0)
(20.949 -0.00185329 0)
(20.9899 -0.00206077 0)
(21.0331 -0.00228391 0)
(21.0785 -0.00252727 0)
(21.1263 -0.00278783 0)
(21.1762 -0.00307721 0)
(21.2289 -0.00338167 0)
(21.2832 -0.00373258 0)
(21.3413 -0.00409016 0)
(21.4001 -0.00453855 0)
(21.4646 -0.00495926 0)
(21.5222 -0.00550262 0)
(21.5946 -0.00606269 0)
(21.6615 -0.00684421 0)
(21.7471 -0.00773565 0)
(21.8204 -0.0085729 0)
(21.921 -0.0109194 0)
(22.0173 -0.0106635 0)
(22.122 -0.0205417 0)
(22.3378 -0.0129186 0)
(22.3447 -0.0671988 0)
(23.0571 -0.203408 0)
(33.2124 0.0593869 0)
(28.2249 0.0114409 0)
(26.4527 0.00456858 0)
(25.4809 0.00287763 0)
(24.853 0.00203182 0)
(24.4135 0.00153433 0)
(24.0862 0.00122718 0)
(23.8286 0.00101765 0)
(23.6223 0.000858124 0)
(23.4536 0.000740592 0)
(23.312 0.000651101 0)
(23.1918 0.000577782 0)
(23.0888 0.000518477 0)
(22.9993 0.000471319 0)
(22.9207 0.000431982 0)
(22.8511 0.000397346 0)
(22.7895 0.000366838 0)
(22.7346 0.000340792 0)
(22.6853 0.000318866 0)
(22.6408 0.000299984 0)
(22.6004 0.000283064 0)
(22.5636 0.000267496 0)
(22.5302 0.000253111 0)
(22.4996 0.000239997 0)
(22.4717 0.000228239 0)
(22.4461 0.000217802 0)
(22.4225 0.000208522 0)
(22.4008 0.000200194 0)
(22.3806 0.000192598 0)
(22.3619 0.00018555 0)
(22.3445 0.000178913 0)
(22.3284 0.000172609 0)
(22.3134 0.000166573 0)
(22.2995 0.000160754 0)
(22.2865 0.000155175 0)
(22.2745 0.000149777 0)
(22.2632 0.000144433 0)
(22.2528 0.000139116 0)
(22.2432 0.000133669 0)
(22.2342 0.000127877 0)
(22.226 0.000121579 0)
(22.2185 0.000114527 0)
(22.2117 0.000106425 0)
(22.2057 9.66988e-05 0)
(22.2006 8.5047e-05 0)
(22.1962 7.13574e-05 0)
(22.1928 5.43373e-05 0)
(22.1905 3.35864e-05 0)
(22.1892 8.76505e-06 0)
(22.1893 -2.20545e-05 0)
(22.1909 -5.87922e-05 0)
(22.1942 -0.000104132 0)
(22.1994 -0.000153113 0)
(22.2099 -0.000215006 0)
(22.2198 -0.000296668 0)
(22.2321 -0.000387902 0)
(22.2474 -0.00049323 0)
(22.2661 -0.000618777 0)
(22.2885 -0.000764765 0)
(22.315 -0.000937191 0)
(22.3463 -0.00113671 0)
(22.3826 -0.00137182 0)
(22.4249 -0.00164749 0)
(22.4653 -0.00191671 0)
(22.5004 -0.00215217 0)
(22.5377 -0.00240155 0)
(22.5772 -0.00267799 0)
(22.619 -0.00297778 0)
(22.6632 -0.00329972 0)
(22.7096 -0.00365123 0)
(22.7585 -0.00402656 0)
(22.8095 -0.00444449 0)
(22.8634 -0.00488205 0)
(22.9188 -0.00538893 0)
(22.9782 -0.00590138 0)
(23.0381 -0.00654062 0)
(23.104 -0.00714988 0)
(23.1664 -0.00797201 0)
(23.2407 -0.00874726 0)
(23.3088 -0.00986299 0)
(23.3954 -0.0110931 0)
(23.4696 -0.0123242 0)
(23.5711 -0.0155372 0)
(23.6654 -0.0153179 0)
(23.7749 -0.0283571 0)
(23.957 -0.0197374 0)
(24.0484 -0.0844492 0)
(24.44 -0.213307 0)
(35.2396 0.0721485 0)
(30.0562 0.0164378 0)
(28.0825 0.00672097 0)
(27.0123 0.00417196 0)
(26.3269 0.00292449 0)
(25.8501 0.00219804 0)
(25.4967 0.00175154 0)
(25.2198 0.00144843 0)
(24.9986 0.001219 0)
(24.8183 0.00105009 0)
(24.6673 0.000921813 0)
(24.5393 0.000817151 0)
(24.4298 0.000732545 0)
(24.3348 0.000665259 0)
(24.2514 0.000609272 0)
(24.1778 0.000560131 0)
(24.1126 0.0005169 0)
(24.0545 0.000479972 0)
(24.0024 0.000448867 0)
(23.9554 0.000422103 0)
(23.9128 0.000398171 0)
(23.874 0.000376195 0)
(23.8387 0.000355911 0)
(23.8065 0.000337421 0)
(23.7771 0.000320834 0)
(23.7501 0.000306102 0)
(23.7253 0.000292999 0)
(23.7023 0.000281244 0)
(23.6811 0.000270532 0)
(23.6614 0.000260603 0)
(23.6432 0.000251263 0)
(23.6262 0.000242402 0)
(23.6104 0.000233927 0)
(23.5957 0.000225752 0)
(23.5821 0.000217919 0)
(23.5694 0.00021035 0)
(23.5576 0.000202847 0)
(23.5466 0.000195389 0)
(23.5364 0.000187765 0)
(23.527 0.000179648 0)
(23.5184 0.000170821 0)
(23.5105 0.000160989 0)
(23.5033 0.000149629 0)
(23.4969 0.000136015 0)
(23.4914 0.000119977 0)
(23.4868 0.000100899 0)
(23.4831 7.71065e-05 0)
(23.4805 4.84555e-05 0)
(23.4791 1.38103e-05 0)
(23.4791 -2.8979e-05 0)
(23.4806 -8.009e-05 0)
(23.4838 -0.000143191 0)
(23.4889 -0.000215279 0)
(23.4972 -0.000301844 0)
(23.5071 -0.00041043 0)
(23.5195 -0.000536593 0)
(23.5351 -0.000683308 0)
(23.554 -0.000857657 0)
(23.5769 -0.00106023 0)
(23.6039 -0.00129964 0)
(23.6359 -0.00157641 0)
(23.6728 -0.00190253 0)
(23.7161 -0.00228372 0)
(23.7573 -0.00265701 0)
(23.7932 -0.00298546 0)
(23.8312 -0.00333076 0)
(23.8716 -0.00371325 0)
(23.9142 -0.00412866 0)
(23.9593 -0.0045742 0)
(24.0066 -0.00506107 0)
(24.0565 -0.00557966 0)
(24.1084 -0.0061582 0)
(24.1633 -0.00676148 0)
(24.2197 -0.0074629 0)
(24.2801 -0.00816679 0)
(24.3409 -0.00904889 0)
(24.4079 -0.00987334 0)
(24.4724 -0.0110188 0)
(24.5479 -0.0120715 0)
(24.6168 -0.0136105 0)
(24.7043 -0.0152444 0)
(24.7785 -0.0169874 0)
(24.882 -0.0211272 0)
(24.9711 -0.0212739 0)
(25.0932 -0.0371012 0)
(25.2324 -0.0296581 0)
(25.4099 -0.0990779 0)
(25.5637 -0.229368 0)
(37.0244 0.0859278 0)
(31.7535 0.0228174 0)
(29.5825 0.00961235 0)
(28.4069 0.00589885 0)
(27.6588 0.00410763 0)
(27.141 0.00307356 0)
(26.7586 0.00244034 0)
(26.4602 0.00201239 0)
(26.2225 0.00169032 0)
(26.029 0.00145337 0)
(25.8675 0.00127383 0)
(25.7308 0.00112795 0)
(25.614 0.00101012 0)
(25.5129 0.000916391 0)
(25.4242 0.000838582 0)
(25.3459 0.000770508 0)
(25.2767 0.000710705 0)
(25.2151 0.000659601 0)
(25.1599 0.000616531 0)
(25.1101 0.000579499 0)
(25.0649 0.000546453 0)
(25.0239 0.000516169 0)
(24.9866 0.000488253 0)
(24.9525 0.000462811 0)
(24.9214 0.000439979 0)
(24.8929 0.000419689 0)
(24.8667 0.000401637 0)
(24.8424 0.000385446 0)
(24.82 0.000370703 0)
(24.7992 0.000357054 0)
(24.78 0.000344226 0)
(24.762 0.000332073 0)
(24.7454 0.000320462 0)
(24.7299 0.000309265 0)
(24.7155 0.000298538 0)
(24.7021 0.000288184 0)
(24.6896 0.000277922 0)
(24.678 0.000267725 0)
(24.6673 0.000257322 0)
(24.6573 0.000246254 0)
(24.6482 0.000234222 0)
(24.6398 0.000220867 0)
(24.6322 0.000205411 0)
(24.6255 0.000186915 0)
(24.6196 0.000165321 0)
(24.6146 0.000139499 0)
(24.6106 0.000107257 0)
(24.6078 6.86762e-05 0)
(24.6061 2.17823e-05 0)
(24.6059 -3.59555e-05 0)
(24.6072 -0.000104973 0)
(24.6103 -0.000190011 0)
(24.6154 -0.000290394 0)
(24.6229 -0.000408198 0)
(24.6328 -0.000551145 0)
(24.6453 -0.000720566 0)
(24.6611 -0.000918701 0)
(24.6802 -0.00115383 0)
(24.7034 -0.00142689 0)
(24.7308 -0.00174967 0)
(24.7632 -0.00212253 0)
(24.8008 -0.00256196 0)
(24.8447 -0.00307438 0)
(24.8866 -0.00357658 0)
(24.9231 -0.00402035 0)
(24.9617 -0.00448467 0)
(25.0026 -0.00499828 0)
(25.046 -0.00555672 0)
(25.0917 -0.00615501 0)
(25.1397 -0.00680913 0)
(25.1903 -0.00750441 0)
(25.2429 -0.00828091 0)
(25.2985 -0.0090881 0)
(25.3557 -0.0100285 0)
(25.4168 -0.0109671 0)
(25.4784 -0.0121474 0)
(25.546 -0.013239 0)
(25.6115 -0.0147722 0)
(25.6876 -0.0161571 0)
(25.7571 -0.0182128 0)
(25.8452 -0.020312 0)
(25.9188 -0.0227283 0)
(26.0247 -0.0277837 0)
(26.1067 -0.0288314 0)
(26.2431 -0.0466441 0)
(26.3424 -0.0430538 0)
(26.581 -0.112209 0)
(26.6012 -0.247198 0)
(38.6321 0.100544 0)
(33.3931 0.0307829 0)
(31.0341 0.0134461 0)
(29.7455 0.0081887 0)
(28.9286 0.00566902 0)
(28.3649 0.00422449 0)
(27.9501 0.00334244 0)
(27.6275 0.00274864 0)
(27.3711 0.00230424 0)
(27.1629 0.0019775 0)
(26.9894 0.0017304 0)
(26.8429 0.00153043 0)
(26.7179 0.00136908 0)
(26.6098 0.0012407 0)
(26.5151 0.00113434 0)
(26.4317 0.0010416 0)
(26.3579 0.000960266 0)
(26.2923 0.000890746 0)
(26.2336 0.000832118 0)
(26.1807 0.00078174 0)
(26.1327 0.00073687 0)
(26.0892 0.00069584 0)
(26.0495 0.000658072 0)
(26.0134 0.000623666 0)
(25.9804 0.000592781 0)
(25.9502 0.00056532 0)
(25.9224 0.000540882 0)
(25.8967 0.000518965 0)
(25.873 0.000499022 0)
(25.851 0.000480578 0)
(25.8306 0.000463267 0)
(25.8116 0.000446885 0)
(25.794 0.000431251 0)
(25.7776 0.000416186 0)
(25.7623 0.000401761 0)
(25.7481 0.000387848 0)
(25.7349 0.000374072 0)
(25.7227 0.000360394 0)
(25.7113 0.000346461 0)
(25.7008 0.000331665 0)
(25.691 0.000315602 0)
(25.6822 0.000297815 0)
(25.6741 0.000277247 0)
(25.6669 0.000252688 0)
(25.6606 0.000224125 0)
(25.6552 0.000189919 0)
(25.6509 0.000147254 0)
(25.6477 9.63241e-05 0)
(25.6458 3.42936e-05 0)
(25.6453 -4.18935e-05 0)
(25.6465 -0.000133006 0)
(25.6493 -0.000245079 0)
(25.6543 -0.000378625 0)
(25.6615 -0.000534836 0)
(25.6713 -0.000722021 0)
(25.6838 -0.00094489 0)
(25.6996 -0.00120627 0)
(25.7189 -0.00151626 0)
(25.7423 -0.00187611 0)
(25.7699 -0.00230147 0)
(25.8026 -0.00279255 0)
(25.8405 -0.00337132 0)
(25.8849 -0.004045 0)
(25.9272 -0.00470523 0)
(25.9641 -0.00529047 0)
(26.0031 -0.00590102 0)
(26.0445 -0.006575 0)
(26.0882 -0.00730839 0)
(26.1345 -0.00809342 0)
(26.1829 -0.00895188 0)
(26.234 -0.00986281 0)
(26.2871 -0.0108805 0)
(26.3431 -0.0119362 0)
(26.4008 -0.0131667 0)
(26.4623 -0.0143909 0)
(26.5243 -0.0159311 0)
(26.5923 -0.0173511 0)
(26.6583 -0.0193486 0)
(26.7346 -0.0211294 0)
(26.8042 -0.02381 0)
(26.8926 -0.0264341 0)
(26.9651 -0.0297337 0)
(27.0733 -0.0356342 0)
(27.1481 -0.0382646 0)
(27.2961 -0.0571664 0)
(27.3658 -0.0596946 0)
(27.6329 -0.125787 0)
(27.5968 -0.263523 0)
(40.0799 0.115681 0)
(35.0107 0.0405343 0)
(32.4813 0.0184805 0)
(31.0728 0.0112189 0)
(30.1797 0.00773024 0)
(29.5646 0.00573964 0)
(29.113 0.0045263 0)
(28.7629 0.00371208 0)
(28.4851 0.00310595 0)
(28.26 0.00266051 0)
(28.0728 0.00232415 0)
(27.915 0.00205302 0)
(27.7805 0.0018345 0)
(27.6643 0.00166057 0)
(27.5628 0.00151675 0)
(27.4734 0.00139176 0)
(27.3944 0.00128236 0)
(27.3243 0.00118884 0)
(27.2615 0.00110993 0)
(27.205 0.00104214 0)
(27.1538 0.000981883 0)
(27.1074 0.000926906 0)
(27.0651 0.000876384 0)
(27.0267 0.000830389 0)
(26.9915 0.000789095 0)
(26.9593 0.000752362 0)
(26.9297 0.000719661 0)
(26.9024 0.000690335 0)
(26.8772 0.000663666 0)
(26.8538 0.000639029 0)
(26.8321 0.000615936 0)
(26.8119 0.000594108 0)
(26.7932 0.000573304 0)
(26.7757 0.000553282 0)
(26.7595 0.000534121 0)
(26.7445 0.000515657 0)
(26.7304 0.000497403 0)
(26.7174 0.000479297 0)
(26.7053 0.000460883 0)
(26.6941 0.000441382 0)
(26.6837 0.000420255 0)
(26.6742 0.000396903 0)
(26.6656 0.000369971 0)
(26.6579 0.000337906 0)
(26.6511 0.000300653 0)
(26.6453 0.000256068 0)
(26.6405 0.000200599 0)
(26.637 0.000134409 0)
(26.6347 5.37787e-05 0)
(26.6339 -4.50558e-05 0)
(26.6348 -0.000163293 0)
(26.6374 -0.000308483 0)
(26.6421 -0.000481661 0)
(26.6491 -0.000684786 0)
(26.6587 -0.000927245 0)
(26.6712 -0.00121577 0)
(26.6869 -0.00155451 0)
(26.7062 -0.00195605 0)
(26.7295 -0.00242212 0)
(26.7572 -0.00297286 0)
(26.7901 -0.00360846 0)
(26.8281 -0.00435742 0)
(26.8728 -0.00522791 0)
(26.9153 -0.00608071 0)
(26.9523 -0.00683835 0)
(26.9916 -0.00762756 0)
(27.0332 -0.00849661 0)
(27.0772 -0.00944267 0)
(27.1236 -0.0104546 0)
(27.1723 -0.0115611 0)
(27.2236 -0.0127338 0)
(27.2769 -0.0140436 0)
(27.3331 -0.0154004 0)
(27.391 -0.0169809 0)
(27.4527 -0.0185508 0)
(27.5148 -0.0205226 0)
(27.5828 -0.022342 0)
(27.6489 -0.0248931 0)
(27.7252 -0.0271462 0)
(27.7945 -0.0305786 0)
(27.8829 -0.0337938 0)
(27.9541 -0.0382237 0)
(28.0635 -0.0448933 0)
(28.1327 -0.0497967 0)
(28.2867 -0.0691363 0)
(28.3393 -0.0791056 0)
(28.6077 -0.141337 0)
(28.5569 -0.277815 0)
(41.3556 0.130802 0)
(36.618 0.0522075 0)
(33.9501 0.0250251 0)
(32.4168 0.015223 0)
(31.4402 0.0104559 0)
(30.7674 0.00774055 0)
(30.2739 0.00608622 0)
(29.8922 0.00497861 0)
(29.5898 0.00415813 0)
(29.345 0.00355529 0)
(29.1419 0.00310052 0)
(28.9709 0.0027353 0)
(28.8253 0.00244133 0)
(28.6997 0.00220722 0)
(28.5902 0.00201394 0)
(28.4938 0.00184654 0)
(28.4088 0.00170034 0)
(28.3333 0.00157538 0)
(28.2658 0.00146985 0)
(28.205 0.00137923 0)
(28.1501 0.00129881 0)
(28.1003 0.00122562 0)
(28.055 0.00115849 0)
(28.0138 0.00109743 0)
(27.9761 0.00104261 0)
(27.9416 0.000993823 0)
(27.9099 0.000950373 0)
(27.8807 0.000911403 0)
(27.8537 0.000875984 0)
(27.8286 0.000843298 0)
(27.8054 0.000812703 0)
(27.7839 0.000783824 0)
(27.7639 0.00075634 0)
(27.7452 0.000729935 0)
(27.7279 0.000704683 0)
(27.7118 0.00068037 0)
(27.6968 0.000656391 0)
(27.6828 0.000632632 0)
(27.6699 0.000608513 0)
(27.6579 0.000583062 0)
(27.6468 0.000555559 0)
(27.6366 0.000525221 0)
(27.6273 0.000490362 0)
(27.619 0.000449005 0)
(27.6116 0.000400953 0)
(27.6052 0.000343543 0)
(27.6 0.000272373 0)
(27.596 0.0001874 0)
(27.5933 8.39823e-05 0)
(27.5921 -4.2558e-05 0)
(27.5925 -0.000193981 0)
(27.5948 -0.000379553 0)
(27.5992 -0.000600701 0)
(27.6059 -0.000860992 0)
(27.6153 -0.00117132 0)
(27.6275 -0.00154008 0)
(27.643 -0.00197308 0)
(27.6621 -0.00248612 0)
(27.6854 -0.00308159 0)
(27.7129 -0.00378493 0)
(27.7457 -0.00459644 0)
(27.7837 -0.0055523 0)
(27.8284 -0.00666199 0)
(27.8709 -0.00774842 0)
(27.9079 -0.00871507 0)
(27.9471 -0.00972169 0)
(27.9888 -0.0108271 0)
(28.0327 -0.0120306 0)
(28.0792 -0.0133171 0)
(28.1279 -0.0147234 0)
(28.1791 -0.0162125 0)
(28.2324 -0.0178742 0)
(28.2886 -0.0195949 0)
(28.3464 -0.0215952 0)
(28.4079 -0.0235832 0)
(28.4699 -0.0260691 0)
(28.5377 -0.0283725 0)
(28.6036 -0.0315799 0)
(28.6794 -0.0343986 0)
(28.7483 -0.038726 0)
(28.8362 -0.0426198 0)
(28.9062 -0.048437 0)
(29.0154 -0.0558664 0)
(29.0812 -0.0636026 0)
(29.235 -0.0831449 0)
(29.2806 -0.100912 0)
(29.5339 -0.159499 0)
(29.4844 -0.291015 0)
(42.4242 0.145095 0)
(38.2065 0.0657771 0)
(35.4542 0.0334211 0)
(33.7971 0.0204983 0)
(32.7303 0.0140637 0)
(31.9932 0.0103906 0)
(31.4523 0.00815001 0)
(31.0344 0.00665165 0)
(30.7037 0.00554655 0)
(30.436 0.00473443 0)
(30.2143 0.00412197 0)
(30.0278 0.00363182 0)
(29.8692 0.00323779 0)
(29.7326 0.00292373 0)
(29.6135 0.00266475 0)
(29.509 0.00244122 0)
(29.4167 0.00224648 0)
(29.3349 0.00208009 0)
(29.2618 0.00193942 0)
(29.196 0.00181863 0)
(29.1366 0.00171161 0)
(29.0828 0.00161446 0)
(29.0339 0.00152555 0)
(28.9894 0.00144478 0)
(28.9487 0.00137226 0)
(28.9115 0.0013077 0)
(28.8773 0.00125017 0)
(28.8458 0.00119856 0)
(28.8166 0.00115167 0)
(28.7897 0.00110845 0)
(28.7647 0.00106805 0)
(28.7414 0.00102998 0)
(28.7199 0.000993803 0)
(28.6998 0.000959126 0)
(28.6812 0.000925988 0)
(28.6638 0.000894122 0)
(28.6476 0.000862781 0)
(28.6326 0.000831768 0)
(28.6186 0.00080036 0)
(28.6056 0.000767353 0)
(28.5937 0.0007318 0)
(28.5826 0.000692675 0)
(28.5726 0.000647924 0)
(28.5635 0.000595061 0)
(28.5554 0.000533611 0)
(28.5484 0.00046037 0)
(28.5425 0.000369972 0)
(28.5379 0.000261946 0)
(28.5347 0.00013068 0)
(28.533 -2.96542e-05 0)
(28.5329 -0.000221551 0)
(28.5348 -0.000456192 0)
(28.5387 -0.000735586 0)
(28.545 -0.00106536 0)
(28.554 -0.00145827 0)
(28.5658 -0.00192463 0)
(28.581 -0.00247207 0)
(28.5998 -0.00312037 0)
(28.6227 -0.00387286 0)
(28.65 -0.00476116 0)
(28.6825 -0.00578596 0)
(28.7202 -0.00699231 0)
(28.7646 -0.00839162 0)
(28.8069 -0.00976038 0)
(28.8437 -0.0109792 0)
(28.8828 -0.0122493 0)
(28.9242 -0.0136399 0)
(28.968 -0.0151539 0)
(29.0142 -0.0167715 0)
(29.0626 -0.0185386 0)
(29.1136 -0.0204089 0)
(29.1666 -0.0224928 0)
(29.2225 -0.0246518 0)
(29.28 -0.0271532 0)
(29.3411 -0.0296454 0)
(29.4028 -0.0327408 0)
(29.4699 -0.0356292 0)
(29.5354 -0.0396091 0)
(29.6103 -0.0431098 0)
(29.6788 -0.0484847 0)
(29.7654 -0.0531862 0)
(29.8346 -0.0606235 0)
(29.9419 -0.068926 0)
(30.0063 -0.0798511 0)
(30.1552 -0.0997498 0)
(30.1995 -0.124946 0)
(30.4309 -0.180376 0)
(30.3859 -0.304018 0)
(43.234 0.157471 0)
(39.7457 0.0809149 0)
(36.9952 0.043991 0)
(35.2265 0.0274057 0)
(34.0655 0.0188362 0)
(33.2581 0.0139067 0)
(32.6641 0.0108893 0)
(32.2052 0.00887105 0)
(31.8419 0.00738782 0)
(31.5478 0.00629709 0)
(31.3044 0.0054741 0)
(31.0999 0.00481747 0)
(30.9261 0.00429025 0)
(30.7764 0.00386953 0)
(30.6461 0.00352283 0)
(30.5318 0.00322456 0)
(30.431 0.00296545 0)
(30.3416 0.0027441 0)
(30.2618 0.00255678 0)
(30.1901 0.00239584 0)
(30.1253 0.00225348 0)
(30.0667 0.00212458 0)
(30.0134 0.00200692 0)
(29.965 0.00190016 0)
(29.9207 0.00180436 0)
(29.8802 0.001719 0)
(29.843 0.0016429 0)
(29.8087 0.0015746 0)
(29.7771 0.00151257 0)
(29.7477 0.00145544 0)
(29.7206 0.00140214 0)
(29.6954 0.00135198 0)
(29.6719 0.00130442 0)
(29.6501 0.00125894 0)
(29.6299 0.00121553 0)
(29.611 0.00117384 0)
(29.5934 0.00113297 0)
(29.5771 0.0010926 0)
(29.5618 0.00105183 0)
(29.5477 0.00100918 0)
(29.5346 0.00096342 0)
(29.5226 0.000913215 0)
(29.5115 0.000856088 0)
(29.5015 0.000788955 0)
(29.4926 0.000710905 0)
(29.4848 0.000618133 0)
(29.4782 0.000504202 0)
(29.4728 0.000367957 0)
(29.4689 0.000202727 0)
(29.4665 1.28678e-06 0)
(29.4659 -0.000239828 0)
(29.4671 -0.000533909 0)