/*--------------------------------*- C++ -*----------------------------------*\
| =========                 |                                                 |
| \\      /  F ield         | OpenFOAM: The Open Source CFD Toolbox           |
|  \\    /   O peration     | Version:  v1912                                 |
|   \\  /    A nd           | Website:  www.openfoam.com                      |
|    \\/     M anipulation  |                                                 |
\*---------------------------------------------------------------------------*/
FoamFile
{
    version     2.0;
    format      ascii;
    class       volVectorField;
    location    "10000";
    object      U;
}
// * * * * * * * * * * * * * * * * * * * * * * * * * * * * * * * * * * * * * //

dimensions      [0 1 -1 0 0 0 0];


internalField   nonuniform List<vector> 
20540
(
(36.9902 -0.000180273 0)
(49.6048 0.0046156 0)
(37.0016 -0.000582254 0)
(49.5821 0.0136503 0)
(37.0319 -0.00106898 0)
(49.526 0.0215225 0)
(37.0917 -0.0016432 0)
(49.4277 0.0282661 0)
(37.1951 -0.00231653 0)
(49.2778 0.0344478 0)
(37.3605 -0.00309848 0)
(49.0658 0.0404481 0)
(37.6093 -0.00399192 0)
(48.7805 0.0462693 0)
(37.9642 -0.00499083 0)
(48.4118 0.0517398 0)
(38.4456 -0.0060767 0)
(47.9523 0.0566231 0)
(39.0677 -0.0072141 0)
(47.3997 0.0606305 0)
(39.8352 -0.00834645 0)
(46.7603 0.0634344 0)
(40.7392 -0.00939296 0)
(46.0523 0.0647236 0)
(41.7462 -0.0102346 0)
(45.3096 0.0643022 0)
(42.7731 -0.0106611 0)
(44.582 0.0622039 0)
(43.6583 -0.0102814 0)
(43.9397 0.0586179 0)
(44.1572 -0.00915767 0)
(43.5911 0.0543812 0)
(44.0763 -0.00927224 0)
(43.9064 0.054028 0)
(43.9621 -0.00943272 0)
(44.0342 0.0538958 0)
(44.0007 -0.00903496 0)
(43.9712 0.0527412 0)
(44.0037 -0.00884374 0)
(43.9744 0.0516927 0)
(44.001 -0.00846 0)
(43.9782 0.0502233 0)
(44.0015 -0.00811702 0)
(43.9793 0.0485708 0)
(44.0016 -0.00765538 0)
(43.981 0.0465564 0)
(44.0017 -0.00713512 0)
(43.983 0.0441632 0)
(44.0018 -0.00653299 0)
(43.9853 0.0413198 0)
(44.002 -0.00584601 0)
(43.9878 0.0379471 0)
(44.0021 -0.00507464 0)
(43.9907 0.0339564 0)
(44.0023 -0.00421922 0)
(43.9936 0.029242 0)
(44.0024 -0.00329082 0)
(43.9967 0.0236777 0)
(44.0026 -0.00228851 0)
(43.9995 0.0170845 0)
(44.0027 -0.00131118 0)
(44.0015 0.0101182 0)
(44.0027 -0.000425917 0)
(44.0024 0.0033811 0)
(44.0027 0.000434682 0)
(44.0025 -0.00332373 0)
(44.0027 0.00132092 0)
(44.0015 -0.0100622 0)
(44.0026 0.00228165 0)
(43.9996 -0.0169207 0)
(44.0024 0.00325341 0)
(43.9968 -0.0233338 0)
(44.0023 0.00415601 0)
(43.9939 -0.0287793 0)
(44.0021 0.00498949 0)
(43.991 -0.0334187 0)
(44.002 0.00574512 0)
(43.9883 -0.0373687 0)
(44.0019 0.00642162 0)
(43.9858 -0.0407268 0)
(44.0018 0.00701779 0)
(43.9835 -0.0435753 0)
(44.0017 0.00754118 0)
(43.9815 -0.0459895 0)
(44.0015 0.00799022 0)
(43.9798 -0.0480257 0)
(44.0013 0.00838145 0)
(43.9785 -0.0497427 0)
(44.0021 0.00867546 0)
(43.9766 -0.0511668 0)
(44.0039 0.00904049 0)
(43.9712 -0.0524577 0)
(43.9818 0.00914518 0)
(43.9938 -0.0532503 0)
(43.9846 0.00957375 0)
(44.035 -0.0544219 0)
(44.168 0.00897936 0)
(43.6944 -0.0535389 0)
(43.9736 0.00974124 0)
(43.6992 -0.0563368 0)
(43.2881 0.0105596 0)
(44.2136 -0.0603604 0)
(42.3527 0.0105034 0)
(44.8773 -0.0632137 0)
(41.3563 0.00989643 0)
(45.5918 -0.0646123 0)
(40.4151 0.00900062 0)
(46.3014 -0.0644 0)
(39.5845 0.00795803 0)
(46.9659 -0.0626324 0)
(38.8857 0.00686049 0)
(47.5595 -0.0595358 0)
(38.3225 0.00577413 0)
(48.0694 -0.0554041 0)
(37.8882 0.00474501 0)
(48.4922 -0.0505264 0)
(37.5683 0.00380133 0)
(48.8313 -0.0451497 0)
(37.3436 0.0029573 0)
(49.0941 -0.0394732 0)
(37.1936 0.00221699 0)
(49.2899 -0.0336345 0)
(37.0993 0.0015772 0)
(49.4289 -0.0276028 0)
(37.0443 0.00102919 0)
(49.5203 -0.0210009 0)
(37.0162 0.000562502 0)
(49.5727 -0.0133069 0)
(37.0055 0.000174637 0)
(49.594 -0.00450011 0)
(5.06899 0.00550344 0)
(3.84923 1.52363e-05 0)
(3.54635 -1.05627e-05 0)
(3.31828 -1.84139e-05 0)
(3.20183 1.30299e-05 0)
(3.1607 1.6113e-05 0)
(3.09741 1.20596e-06 0)
(3.04696 8.7435e-07 0)
(3.00643 7.13344e-07 0)
(2.97318 6.91003e-07 0)
(2.94523 -1.3546e-05 0)
(2.88788 -1.52219e-05 0)
(2.86776 -2.58237e-07 0)
(2.8505 -3.79871e-08 0)
(2.83534 -4.0407e-09 0)
(2.82194 5.24471e-09 0)
(2.81006 1.21423e-08 0)
(2.79947 1.79504e-08 0)
(2.78997 2.27622e-08 0)
(2.78137 2.72128e-08 0)
(2.77357 -1.07172e-07 0)
(2.76637 1.87219e-05 0)
(2.78887 1.91111e-05 0)
(2.78318 6.67967e-07 0)
(2.77762 2.45248e-07 0)
(2.77249 1.81822e-07 0)
(2.76777 1.72836e-07 0)
(2.7634 1.66077e-07 0)
(2.75936 1.6002e-07 0)
(2.75561 1.54375e-07 0)
(2.75213 1.49679e-07 0)
(2.74889 1.08235e-07 0)
(2.74584 5.50246e-08 0)
(2.743 1.24278e-07 0)
(2.74044 1.66707e-07 0)
(2.73802 6.42208e-08 0)
(2.73572 1.12371e-07 0)
(2.73368 1.68653e-07 0)
(2.73174 3.5662e-08 0)
(2.7299 8.65556e-08 0)
(2.72831 1.55139e-07 0)
(2.72682 -3.02258e-09 0)
(2.72541 3.70408e-08 0)
(2.72428 7.75538e-08 0)
(2.72319 -1.68196e-07 0)
(2.72223 -1.17347e-07 0)
(2.72171 4.61258e-08 0)
(2.72129 -1.54801e-07 0)
(2.72106 -2.32191e-07 0)
(2.72118 -1.69154e-07 0)
(2.72163 -2.28667e-07 0)
(2.72248 -1.00553e-07 0)
(2.72376 -1.67266e-07 0)
(2.72543 -6.13429e-07 0)
(2.72768 -7.76744e-07 0)
(2.73055 -7.66972e-07 0)
(2.73409 -9.74971e-07 0)
(2.73834 -1.29767e-06 0)
(2.74344 -1.50444e-06 0)
(2.7495 -1.88623e-06 0)
(2.75661 -2.52565e-06 0)
(2.76484 -2.87021e-06 0)
(2.77445 -3.50468e-06 0)
(2.78359 -4.85001e-06 0)
(2.79151 -5.37286e-06 0)
(2.79998 -5.86619e-06 0)
(2.80903 -6.62745e-06 0)
(2.81865 -7.46197e-06 0)
(2.82883 -8.43e-06 0)
(2.83958 -9.47751e-06 0)
(2.85093 -1.07333e-05 0)
(2.86285 -1.20065e-05 0)
(2.87547 -1.37177e-05 0)
(2.88859 -1.51944e-05 0)
(2.90267 -1.77717e-05 0)
(2.91704 -1.92246e-05 0)
(2.93292 -2.37424e-05 0)
(2.94858 -2.42569e-05 0)
(2.96702 -3.37103e-05 0)
(2.984 -3.03756e-05 0)
(3.00648 -5.32079e-05 0)
(3.02535 -3.82503e-05 0)
(3.05428 -9.7606e-05 0)
(3.07942 -6.55842e-05 0)
(3.11595 -0.000208161 0)
(3.18465 -0.000464319 0)
(3.18476 -0.00144602 0)
(3.22192 -0.0277231 0)
(15.1593 0.0165827 0)
(12.0288 0.000743559 0)
(11.1206 0.000217918 0)
(10.5094 0.000115985 0)
(10.1478 0.000149407 0)
(9.9597 0.000125968 0)
(9.76757 7.02215e-05 0)
(9.61423 5.77414e-05 0)
(9.49082 4.84971e-05 0)
(9.38943 4.19871e-05 0)
(9.30415 1.16622e-07 0)
(9.16867 -7.85162e-06 0)
(9.10576 2.80102e-05 0)
(9.05176 2.59689e-05 0)
(9.00432 2.38367e-05 0)
(8.96236 2.19151e-05 0)
(8.92516 2.02208e-05 0)
(8.892 1.87789e-05 0)
(8.86223 1.75687e-05 0)
(8.83531 1.65303e-05 0)
(8.81086 1.52533e-05 0)
(8.78824 6.35421e-05 0)
(8.82537 6.32568e-05 0)
(8.80787 1.47157e-05 0)
(8.7908 1.28569e-05 0)
(8.77505 1.21121e-05 0)
(8.76054 1.15882e-05 0)
(8.74714 1.11221e-05 0)
(8.73472 1.06973e-05 0)
(8.7232 1.03028e-05 0)
(8.71249 9.93252e-06 0)
(8.70254 9.48104e-06 0)
(8.6932 9.00845e-06 0)
(8.68451 8.88172e-06 0)
(8.6766 8.70441e-06 0)
(8.66913 8.13353e-06 0)
(8.66211 7.96786e-06 0)
(8.65579 7.84175e-06 0)
(8.64981 7.18657e-06 0)
(8.64418 7.00089e-06 0)
(8.63923 6.85737e-06 0)
(8.63458 6.04754e-06 0)
(8.63028 5.69629e-06 0)
(8.62668 5.36484e-06 0)
(8.62327 4.10693e-06 0)
(8.62028 3.28138e-06 0)
(8.6185 2.79203e-06 0)
(8.61706 1.25423e-06 0)
(8.6163 -3.39317e-07 0)
(8.61646 -1.92718e-06 0)
(8.61757 -4.33038e-06 0)
(8.61987 -6.3213e-06 0)
(8.62337 -9.10034e-06 0)
(8.62809 -1.3972e-05 0)
(8.63451 -1.87557e-05 0)
(8.64273 -2.36261e-05 0)
(8.65289 -2.99998e-05 0)
(8.66509 -3.78825e-05 0)
(8.67979 -4.67381e-05 0)
(8.6971 -5.73494e-05 0)
(8.71756 -7.01212e-05 0)
(8.74126 -8.42692e-05 0)
(8.76882 -0.000101616 0)
(8.79486 -0.000120354 0)
(8.8176 -0.000134959 0)
(8.84191 -0.000150584 0)
(8.86783 -0.000168583 0)
(8.89534 -0.000188019 0)
(8.92442 -0.000209206 0)
(8.95507 -0.000232355 0)
(8.98739 -0.000257655 0)
(9.02124 -0.000285483 0)
(9.05702 -0.00031597 0)
(9.09411 -0.000349879 0)
(9.13378 -0.000387651 0)
(9.17415 -0.000429555 0)
(9.21859 -0.000479059 0)
(9.26221 -0.000531544 0)
(9.31327 -0.000604177 0)
(9.36 -0.000667927 0)
(9.42123 -0.000803989 0)
(9.4723 -0.000861788 0)
(9.54857 -0.00120809 0)
(9.61493 -0.00119632 0)
(9.70357 -0.00243314 0)
(9.87323 -0.00296761 0)
(9.8598 -0.00439855 0)
(10.6031 -0.151782 0)
(23.34 0.0278691 0)
(19.3976 0.00250538 0)
(18.1649 0.000879163 0)
(17.4591 0.000553441 0)
(16.9538 0.000479868 0)
(16.5603 0.000376678 0)
(16.2875 0.000261919 0)
(16.0693 0.000216887 0)
(15.8928 0.000182823 0)
(15.7472 0.000158192 0)
(15.6242 8.38026e-05 0)
(15.5407 6.46409e-05 0)
(15.4492 0.000110344 0)
(15.3695 0.000101296 0)
(15.2991 9.29573e-05 0)
(15.2367 8.55013e-05 0)
(15.1813 7.89202e-05 0)
(15.1319 7.33104e-05 0)
(15.0874 6.85974e-05 0)
(15.0471 6.45487e-05 0)
(15.0105 6.03473e-05 0)
(14.9769 0.000135101 0)
(14.9301 0.000132383 0)
(14.9028 5.36627e-05 0)
(14.8776 4.88159e-05 0)
(14.8545 4.62635e-05 0)
(14.8332 4.42765e-05 0)
(14.8135 4.25015e-05 0)
(14.7953 4.08828e-05 0)
(14.7784 3.93792e-05 0)
(14.7627 3.79647e-05 0)
(14.7481 3.64462e-05 0)
(14.7345 3.49422e-05 0)
(14.7219 3.40487e-05 0)
(14.7102 3.30492e-05 0)
(14.6993 3.14506e-05 0)
(14.6891 3.05663e-05 0)
(14.6797 2.96782e-05 0)
(14.6709 2.79356e-05 0)
(14.6629 2.69729e-05 0)
(14.6554 2.59397e-05 0)
(14.6486 2.37387e-05 0)
(14.6426 2.22214e-05 0)
(14.6371 2.03478e-05 0)
(14.6324 1.66338e-05 0)
(14.6285 1.38749e-05 0)
(14.6255 1.12919e-05 0)
(14.6234 6.28393e-06 0)
(14.6225 6.53109e-07 0)
(14.6226 -5.8919e-06 0)
(14.6242 -1.40807e-05 0)
(14.6274 -2.23417e-05 0)
(14.6322 -3.3595e-05 0)
(14.639 -4.91044e-05 0)
(14.6481 -6.54808e-05 0)
(14.6595 -8.41649e-05 0)
(14.6738 -0.000107547 0)
(14.6912 -0.000135514 0)
(14.7121 -0.000167752 0)
(14.7367 -0.000205837 0)
(14.7658 -0.00025022 0)
(14.7995 -0.000301487 0)
(14.8392 -0.0003632 0)
(14.8772 -0.000426135 0)
(14.91 -0.00047771 0)
(14.9447 -0.00053241 0)
(14.9816 -0.000594614 0)
(15.0206 -0.000661912 0)
(15.0618 -0.000734747 0)
(15.1052 -0.00081414 0)
(15.1509 -0.000899949 0)
(15.1986 -0.000994686 0)
(15.2489 -0.00109615 0)
(15.3009 -0.00121111 0)
(15.3564 -0.00133305 0)
(15.4127 -0.00147575 0)
(15.4745 -0.00162739 0)
(15.5349 -0.00181062 0)
(15.6052 -0.00201516 0)
(15.6694 -0.00225154 0)
(15.7524 -0.00260735 0)
(15.8219 -0.00285373 0)
(15.9224 -0.00376514 0)
(16.0116 -0.003709 0)
(16.1211 -0.00730444 0)
(16.3341 -0.00605256 0)
(16.3356 -0.0214567 0)
(17.4145 -0.192464 0)
(28.3373 0.0380577 0)
(23.9336 0.00491178 0)
(22.5188 0.00187555 0)
(21.7386 0.00121378 0)
(21.1932 0.000891533 0)
(20.7666 0.00067811 0)
(20.4739 0.000532067 0)
(20.241 0.000442295 0)
(20.0531 0.00037363 0)
(19.8985 0.000323207 0)
(19.768 0.000265914 0)
(19.6908 0.000234409 0)
(19.5949 0.000227883 0)
(19.5112 0.000207751 0)
(19.4372 0.000190606 0)
(19.3717 0.000175428 0)
(19.3135 0.000162018 0)
(19.2615 0.000150564 0)
(19.2148 0.000140927 0)
(19.1725 0.000132644 0)
(19.134 0.000124968 0)
(19.099 0.000144791 0)
(19.0362 0.000138749 0)
(19.0068 0.000106893 0)
(18.9803 0.00010053 0)
(18.956 9.57656e-05 0)
(18.9336 9.1696e-05 0)
(18.9129 8.80473e-05 0)
(18.8937 8.47197e-05 0)
(18.8759 8.16294e-05 0)
(18.8594 7.8718e-05 0)
(18.8441 7.5881e-05 0)
(18.8298 7.31385e-05 0)
(18.8166 7.07197e-05 0)
(18.8042 6.8347e-05 0)
(18.7927 6.57887e-05 0)
(18.7821 6.35328e-05 0)
(18.7722 6.12921e-05 0)
(18.763 5.86562e-05 0)
(18.7546 5.61994e-05 0)
(18.7467 5.35587e-05 0)
(18.7396 5.0159e-05 0)
(18.7332 4.6618e-05 0)
(18.7275 4.25724e-05 0)
(18.7227 3.6962e-05 0)
(18.7188 3.05062e-05 0)
(18.7155 2.35299e-05 0)
(18.7133 1.44467e-05 0)
(18.7124 2.97251e-06 0)
(18.7127 -1.08174e-05 0)
(18.7144 -2.7053e-05 0)
(18.7177 -4.58485e-05 0)
(18.7228 -6.97634e-05 0)
(18.73 -9.94392e-05 0)
(18.7396 -0.000133158 0)
(18.7516 -0.000172716 0)
(18.7667 -0.000220001 0)
(18.785 -0.000276113 0)
(18.807 -0.000341425 0)
(18.833 -0.000418535 0)
(18.8637 -0.000508126 0)
(18.8992 -0.000612763 0)
(18.9412 -0.000736109 0)
(18.9815 -0.000857888 0)
(19.0163 -0.000962688 0)
(19.0529 -0.00107484 0)
(19.0918 -0.00119937 0)
(19.1329 -0.00133402 0)
(19.1764 -0.00147911 0)
(19.222 -0.00163726 0)
(19.2701 -0.0018071 0)
(19.3203 -0.00199527 0)
(19.3733 -0.00219438 0)
(19.428 -0.00242246 0)
(19.4864 -0.00265836 0)
(19.5455 -0.00294252 0)
(19.6104 -0.00322852 0)
(19.6737 -0.00359754 0)
(19.7475 -0.0039685 0)
(19.8147 -0.0044534 0)
(19.9012 -0.00507802 0)
(19.9745 -0.00559662 0)
(20.0768 -0.00723352 0)
(20.1733 -0.00701993 0)
(20.2761 -0.0139304 0)
(20.5076 -0.00827513 0)
(20.477 -0.0477473 0)
(21.5026 -0.200763 0)
(31.5833 0.048624 0)
(26.781 0.00784714 0)
(25.1685 0.00308418 0)
(24.2835 0.00197356 0)
(23.6939 0.00140388 0)
(23.2615 0.00106248 0)
(22.9503 0.000851143 0)
(22.7042 0.000707392 0)
(22.5065 0.000597447 0)
(22.3443 0.000516338 0)
(22.2079 0.000453235 0)
(22.1071 0.000403301 0)
(22.0074 0.000363365 0)
(21.9207 0.000330557 0)
(21.8442 0.000303205 0)
(21.7765 0.000279082 0)
(21.7165 0.000257771 0)
(21.6629 0.000239547 0)
(21.6148 0.000224202 0)
(21.5713 0.000211017 0)
(21.5318 0.000199244 0)
(21.4958 0.000190068 0)
(21.449 0.000179838 0)
(21.4189 0.000169015 0)
(21.3916 0.000160486 0)
(21.3666 0.000153116 0)
(21.3436 0.000146623 0)
(21.3223 0.000140793 0)
(21.3025 0.000135478 0)
(21.2842 0.000130546 0)
(21.2673 0.0001259 0)
(21.2515 0.000121465 0)
(21.2368 0.000117211 0)
(21.2232 0.000113175 0)
(21.2104 0.000109276 0)
(21.1986 0.000105433 0)
(21.1877 0.00010171 0)
(21.1774 9.79874e-05 0)
(21.168 9.40909e-05 0)
(21.1593 9.00436e-05 0)
(21.1512 8.56483e-05 0)
(21.1439 8.059e-05 0)
(21.1373 7.48545e-05 0)
(21.1314 6.82703e-05 0)
(21.1264 5.99342e-05 0)
(21.1223 4.97306e-05 0)
(21.1189 3.81479e-05 0)
(21.1167 2.37497e-05 0)
(21.1156 5.76658e-06 0)
(21.1159 -1.60469e-05 0)
(21.1176 -4.18867e-05 0)
(21.1208 -7.2607e-05 0)
(21.126 -0.000110978 0)
(21.1334 -0.000157135 0)
(21.1431 -0.000210422 0)
(21.1553 -0.000273631 0)
(21.1707 -0.000348543 0)
(21.1893 -0.000437237 0)
(21.2117 -0.000540554 0)
(21.2382 -0.000662575 0)
(21.2695 -0.00080404 0)
(21.3057 -0.000970042 0)
(21.3483 -0.00116455 0)
(21.3891 -0.00135501 0)
(21.4244 -0.00152131 0)
(21.4617 -0.00169851 0)
(21.5013 -0.00189448 0)
(21.5431 -0.00210663 0)
(21.5874 -0.00233471 0)
(21.6339 -0.00258348 0)
(21.6828 -0.00284967 0)
(21.7339 -0.00314541 0)
(21.7878 -0.00345619 0)
(21.8434 -0.00381467 0)
(21.9029 -0.00418013 0)
(21.963 -0.0046279 0)
(22.0291 -0.00506509 0)
(22.0933 -0.00564934 0)
(22.1683 -0.00620548 0)
(22.2366 -0.00697781 0)
(22.3239 -0.00789634 0)
(22.3986 -0.00873197 0)
(22.5007 -0.01115 0)
(22.5991 -0.0108179 0)
(22.7002 -0.0209963 0)
(22.9207 -0.0127136 0)
(22.9248 -0.0687178 0)
(23.654 -0.203642 0)
(34.0422 0.0604539 0)
(28.9377 0.0117496 0)
(27.1199 0.00470384 0)
(26.1304 0.00295849 0)
(25.4877 0.00208584 0)
(25.0321 0.00157318 0)
(24.6974 0.00125786 0)
(24.434 0.00104293 0)
(24.223 0.000879347 0)
(24.0505 0.000758658 0)
(23.9059 0.000668227 0)
(23.7882 0.000593761 0)
(23.6828 0.000531656 0)
(23.5913 0.00048312 0)
(23.5109 0.000442881 0)
(23.4397 0.000407484 0)
(23.3766 0.000376244 0)
(23.3204 0.000349514 0)
(23.2699 0.000326993 0)
(23.2243 0.000307657 0)
(23.1829 0.000290487 0)
(23.1453 0.000272725 0)
(23.1061 0.000257772 0)
(23.0748 0.000246116 0)
(23.0462 0.000234073 0)
(23.02 0.000223371 0)
(22.9959 0.000213866 0)
(22.9736 0.000205332 0)
(22.9529 0.000197557 0)
(22.9338 0.000190349 0)
(22.916 0.000183565 0)
(22.8995 0.000177107 0)
(22.8841 0.000170927 0)
(22.8699 0.000165022 0)
(22.8566 0.000159315 0)
(22.8442 0.00015375 0)
(22.8327 0.000148315 0)
(22.822 0.000142859 0)
(22.8121 0.000137231 0)
(22.803 0.000131334 0)
(22.7946 0.0001249 0)
(22.7869 0.000117593 0)
(22.7799 0.000109277 0)
(22.7738 9.95994e-05 0)
(22.7684 8.75425e-05 0)
(22.764 7.30842e-05 0)
(22.7605 5.6167e-05 0)
(22.758 3.51102e-05 0)
(22.7568 9.19207e-06 0)
(22.7569 -2.2327e-05 0)
(22.7586 -5.97219e-05 0)
(22.7618 -0.00010465 0)
(22.767 -0.0001603 0)
(22.7745 -0.000226546 0)
(22.7843 -0.000303508 0)
(22.7968 -0.000395221 0)
(22.8125 -0.00050367 0)
(22.8315 -0.000632029 0)
(22.8544 -0.00078149 0)
(22.8814 -0.000958037 0)
(22.9135 -0.00116238 0)
(22.9505 -0.00140294 0)
(22.9939 -0.00168442 0)
(23.0353 -0.00195943 0)
(23.0714 -0.00220061 0)
(23.1095 -0.00245607 0)
(23.1499 -0.00273883 0)
(23.1926 -0.00304543 0)
(23.2378 -0.00337457 0)
(23.2853 -0.00373396 0)
(23.3353 -0.00411744 0)
(23.3874 -0.00454461 0)
(23.4424 -0.00499125 0)
(23.4991 -0.0055092 0)
(23.5597 -0.00603195 0)
(23.6209 -0.00668003 0)
(23.6882 -0.00730001 0)
(23.7536 -0.0081474 0)
(23.8297 -0.00892687 0)
(23.8991 -0.0100491 0)
(23.9874 -0.0113152 0)
(24.063 -0.0125468 0)
(24.1661 -0.0158461 0)
(24.2623 -0.0155283 0)
(24.3715 -0.0289817 0)
(24.5573 -0.0195717 0)
(24.6478 -0.0861632 0)
(25.0454 -0.213627 0)
(36.1001 0.0734738 0)
(30.7979 0.0168676 0)
(28.7755 0.00690992 0)
(27.6816 0.00428241 0)
(26.9804 0.0029999 0)
(26.4909 0.00225335 0)
(26.1296 0.00179424 0)
(25.8465 0.00148358 0)
(25.6205 0.00124851 0)
(25.4361 0.00107519 0)
(25.2818 0.000944236 0)
(25.1525 0.000837575 0)
(25.0405 0.000750541 0)
(24.9434 0.000681393 0)
(24.8581 0.000624191 0)
(24.7828 0.000574013 0)
(24.716 0.000529784 0)
(24.6566 0.000491922 0)
(24.6033 0.000460003 0)
(24.5552 0.00043262 0)
(24.5115 0.000408282 0)
(24.4718 0.000385418 0)
(24.4342 0.000364449 0)
(24.4012 0.00034583 0)
(24.3711 0.000328887 0)
(24.3434 0.000313816 0)
(24.318 0.000300404 0)
(24.2945 0.000288362 0)
(24.2728 0.0002774 0)
(24.2527 0.000267249 0)
(24.2339 0.000257707 0)
(24.2166 0.000248629 0)
(24.2004 0.000239951 0)
(24.1854 0.000231669 0)
(24.1714 0.000223654 0)
(24.1584 0.000215845 0)
(24.1463 0.000208232 0)
(24.135 0.000200576 0)
(24.1246 0.000192689 0)
(24.1149 0.000184447 0)
(24.1061 0.000175443 0)
(24.098 0.000165228 0)
(24.0906 0.000153649 0)
(24.0841 0.000140069 0)
(24.0784 0.000123218 0)
(24.0737 0.000103375 0)
(24.0699 7.98107e-05 0)
(24.0672 5.03698e-05 0)
(24.0658 1.44005e-05 0)
(24.0657 -2.9361e-05 0)
(24.0673 -8.1305e-05 0)
(24.0705 -0.000143987 0)
(24.0757 -0.000221277 0)
(24.0832 -0.00031291 0)
(24.0931 -0.000419697 0)
(24.1058 -0.000547228 0)
(24.1217 -0.000697853 0)
(24.141 -0.000876111 0)
(24.1644 -0.00108357 0)
(24.1919 -0.00132866 0)
(24.2246 -0.001612 0)
(24.2623 -0.00194605 0)
(24.3065 -0.00233634 0)
(24.3487 -0.00271757 0)
(24.3854 -0.00305315 0)
(24.4243 -0.00340656 0)
(24.4655 -0.00379774 0)
(24.5091 -0.00422254 0)
(24.5551 -0.00467799 0)
(24.6034 -0.00517572 0)
(24.6544 -0.00570551 0)
(24.7074 -0.00629677 0)
(24.7634 -0.00691249 0)
(24.8211 -0.00762908 0)
(24.8827 -0.00834687 0)
(24.9448 -0.00924366 0)
(25.0132 -0.0100894 0)
(25.0794 -0.0112616 0)
(25.1565 -0.0123155 0)
(25.2268 -0.0138683 0)
(25.3159 -0.0155458 0)
(25.3915 -0.0172918 0)
(25.4968 -0.0215374 0)
(25.5874 -0.0215626 0)
(25.7108 -0.0378687 0)
(25.8524 -0.0296137 0)
(26.0319 -0.100892 0)
(26.1856 -0.23006 0)
(37.9162 0.087529 0)
(32.5265 0.023396 0)
(30.3036 0.00987052 0)
(29.1009 0.00604876 0)
(28.336 0.00421088 0)
(27.8059 0.00314965 0)
(27.415 0.00249844 0)
(27.1101 0.00206015 0)
(26.8671 0.00173039 0)
(26.6694 0.00148745 0)
(26.5043 0.00130326 0)
(26.3649 0.00115451 0)
(26.2455 0.00103439 0)
(26.1421 0.000938195 0)
(26.0514 0.000858751 0)
(25.9714 0.000789273 0)
(25.9005 0.000728123 0)
(25.8375 0.000675759 0)
(25.781 0.000631588 0)
(25.73 0.000593717 0)
(25.6838 0.000560046 0)
(25.6419 0.000530142 0)
(25.6032 0.000501426 0)
(25.5684 0.000474219 0)
(25.5365 0.000450859 0)
(25.5073 0.000430124 0)
(25.4805 0.000411655 0)
(25.4557 0.000395075 0)
(25.4327 0.000379993 0)
(25.4114 0.000366041 0)
(25.3917 0.000352943 0)
(25.3733 0.000340493 0)
(25.3563 0.000328604 0)
(25.3404 0.000317267 0)
(25.3256 0.000306294 0)
(25.3119 0.000295611 0)
(25.2991 0.000285208 0)
(25.2873 0.000274744 0)
(25.2763 0.00026398 0)
(25.2661 0.000252751 0)
(25.2567 0.000240492 0)
(25.2481 0.000226606 0)
(25.2403 0.000210901 0)
(25.2334 0.000192432 0)
(25.2273 0.000169586 0)
(25.2222 0.000142925 0)
(25.2181 0.000111042 0)
(25.2152 7.11823e-05 0)
(25.2135 2.26475e-05 0)
(25.2133 -3.64037e-05 0)
(25.2146 -0.000106512 0)
(25.2177 -0.000191283 0)
(25.2229 -0.00029548 0)
(25.2303 -0.000418814 0)
(25.2403 -0.000562826 0)
(25.2531 -0.000734951 0)
(25.2691 -0.000938053 0)
(25.2887 -0.0011784 0)
(25.3124 -0.00145798 0)
(25.3403 -0.0017883 0)
(25.3734 -0.00216986 0)
(25.4117 -0.00261992 0)
(25.4566 -0.00314478 0)
(25.4994 -0.00365764 0)
(25.5367 -0.00411072 0)
(25.5761 -0.00458564 0)
(25.618 -0.00511074 0)
(25.6622 -0.00568164 0)
(25.7089 -0.00629307 0)
(25.758 -0.00696159 0)
(25.8096 -0.0076717 0)
(25.8634 -0.00846505 0)
(25.9201 -0.00928867 0)
(25.9785 -0.0102491 0)
(26.0409 -0.0112061 0)
(26.1037 -0.0124067 0)
(26.1728 -0.0135288 0)
(26.2397 -0.0150949 0)
(26.3174 -0.016482 0)
(26.3881 -0.018559 0)
(26.4779 -0.0207092 0)
(26.5528 -0.0231345 0)
(26.6607 -0.0283121 0)
(26.744 -0.0292347 0)
(26.8826 -0.0475492 0)
(26.983 -0.0432102 0)
(27.2257 -0.114073 0)
(27.2434 -0.248308 0)
(39.5544 0.102436 0)
(34.199 0.0315429 0)
(31.7847 0.013794 0)
(30.4665 0.00839077 0)
(29.6312 0.00580792 0)
(29.0548 0.00432679 0)
(28.6308 0.0034204 0)
(28.3011 0.0028126 0)
(28.0391 0.00235785 0)
(27.8263 0.00202308 0)
(27.6491 0.00176947 0)
(27.4993 0.00156558 0)
(27.3715 0.00140141 0)
(27.2609 0.00126976 0)
(27.1642 0.00116122 0)
(27.0789 0.00106659 0)
(27.0034 0.00098346 0)
(26.9363 0.000912262 0)
(26.8762 0.000852165 0)
(26.822 0.000800663 0)
(26.773 0.000754896 0)
(26.7284 0.000714857 0)
(26.6877 0.000676136 0)
(26.6508 0.000638886 0)
(26.617 0.000607249 0)
(26.5861 0.0005792 0)
(26.5576 0.000554204 0)
(26.5313 0.000531769 0)
(26.507 0.000511373 0)
(26.4845 0.000492525 0)
(26.4636 0.000474853 0)
(26.4442 0.000458078 0)
(26.4261 0.000442075 0)
(26.4093 0.00042682 0)
(26.3937 0.000412067 0)
(26.3792 0.000397722 0)
(26.3656 0.000383757 0)
(26.3531 0.000369726 0)
(26.3414 0.000355321 0)
(26.3306 0.000340308 0)
(26.3206 0.000323949 0)
(26.3115 0.000305469 0)
(26.3033 0.000284588 0)
(26.2959 0.000260037 0)
(26.2894 0.00022978 0)
(26.2839 0.000194575 0)
(26.2795 0.000152361 0)
(26.2762 9.96626e-05 0)
(26.2742 3.55994e-05 0)
(26.2737 -4.23266e-05 0)
(26.2749 -0.00013491 0)
(26.2778 -0.000246909 0)
(26.2828 -0.000384182 0)
(26.2901 -0.000546654 0)
(26.3001 -0.00073665 0)
(26.3129 -0.000963705 0)
(26.329 -0.0012314 0)
(26.3486 -0.00154816 0)
(26.3725 -0.00191649 0)
(26.4006 -0.00235164 0)
(26.4341 -0.00285401 0)
(26.4728 -0.00344652 0)
(26.5181 -0.00413627 0)
(26.5613 -0.00481051 0)
(26.599 -0.00540798 0)
(26.6388 -0.00603222 0)
(26.6811 -0.0067211 0)
(26.7258 -0.00747065 0)
(26.7729 -0.00827272 0)
(26.8224 -0.00914983 0)
(26.8746 -0.01008 0)
(26.9288 -0.0111195 0)
(26.986 -0.0121964 0)
(27.0449 -0.0134528 0)
(27.1077 -0.0147009 0)
(27.171 -0.0162681 0)
(27.2404 -0.017726 0)
(27.3077 -0.0197647 0)
(27.3856 -0.0215528 0)
(27.4565 -0.0242641 0)
(27.5467 -0.0269465 0)
(27.6204 -0.0302662 0)
(27.7306 -0.0362997 0)
(27.8066 -0.0388227 0)
(27.9572 -0.0582166 0)
(28.0273 -0.0601155 0)
(28.2993 -0.12773 0)
(28.2604 -0.265013 0)
(41.0308 0.11787 0)
(35.8504 0.041513 0)
(33.2628 0.0189446 0)
(31.8219 0.0114898 0)
(30.9089 0.00791556 0)
(30.28 0.00587585 0)
(29.8184 0.00463022 0)
(29.4606 0.00379716 0)
(29.1768 0.00317717 0)
(28.9467 0.00272102 0)
(28.7554 0.00237614 0)
(28.594 0.00209971 0)
(28.4565 0.00187724 0)
(28.3378 0.001699 0)
(28.2339 0.00155225 0)
(28.1426 0.00142475 0)
(28.0618 0.00131296 0)
(27.99 0.00121723 0)
(27.9258 0.00113636 0)
(27.868 0.00106709 0)
(27.8156 0.00100559 0)
(27.7681 0.000951737 0)
(27.7249 0.000900048 0)
(27.6855 0.000850486 0)
(27.6495 0.000808161 0)
(27.6166 0.000770644 0)
(27.5862 0.000737204 0)
(27.5583 0.000707192 0)
(27.5324 0.000679923 0)
(27.5085 0.000654751 0)
(27.4863 0.000631179 0)
(27.4656 0.000608838 0)
(27.4464 0.00058755 0)
(27.4286 0.000567265 0)
(27.412 0.000547674 0)
(27.3965 0.000528652 0)
(27.3822 0.000510141 0)
(27.3688 0.000491574 0)
(27.3564 0.000472557 0)
(27.3449 0.000452757 0)
(27.3343 0.000431242 0)
(27.3246 0.000407019 0)
(27.3157 0.000379664 0)
(27.3078 0.00034757 0)
(27.3008 0.000308181 0)
(27.2949 0.000262342 0)
(27.29 0.000207354 0)
(27.2864 0.000138898 0)
(27.284 5.57591e-05 0)
(27.2832 -4.53345e-05 0)
(27.284 -0.00016558 0)
(27.2867 -0.00031096 0)
(27.2915 -0.000488639 0)
(27.2986 -0.00069912 0)
(27.3084 -0.00094557 0)
(27.3211 -0.00123989 0)
(27.3372 -0.00158661 0)
(27.3568 -0.00199684 0)
(27.3807 -0.00247372 0)
(27.4089 -0.003037 0)
(27.4425 -0.00368704 0)
(27.4813 -0.00445345 0)
(27.5269 -0.00534427 0)
(27.5703 -0.00621516 0)
(27.6081 -0.00698872 0)
(27.6482 -0.00779543 0)
(27.6907 -0.00868352 0)
(27.7356 -0.00965025 0)
(27.783 -0.010684 0)
(27.8327 -0.0118143 0)
(27.8851 -0.0130116 0)
(27.9395 -0.0143491 0)
(27.997 -0.0157332 0)
(28.056 -0.0173463 0)
(28.119 -0.0189471 0)
(28.1824 -0.0209538 0)
(28.2518 -0.0228186 0)
(28.3193 -0.0254208 0)
(28.3971 -0.0276893 0)
(28.4678 -0.0311644 0)
(28.5579 -0.0344451 0)
(28.6304 -0.0389121 0)
(28.7419 -0.0457204 0)
(28.8121 -0.0505515 0)
(28.9689 -0.0703551 0)
(29.0216 -0.0798394 0)
(29.2951 -0.143417 0)
(29.2418 -0.279677 0)
(42.3319 0.133282 0)
(37.4921 0.0534448 0)
(34.7636 0.0256389 0)
(33.1952 0.0155847 0)
(32.1968 0.0107023 0)
(31.5089 0.00792132 0)
(31.0045 0.00622439 0)
(30.6144 0.00509148 0)
(30.3054 0.00425248 0)
(30.0552 0.00363538 0)
(29.8476 0.00316959 0)
(29.6728 0.00279725 0)
(29.5239 0.00249765 0)
(29.3956 0.00225784 0)
(29.2836 0.00206063 0)
(29.1851 0.00188988 0)
(29.0981 0.00174052 0)
(29.0208 0.00161265 0)
(28.9518 0.00150455 0)
(28.8896 0.00141195 0)
(28.8334 0.00132985 0)
(28.7825 0.00125762 0)
(28.7361 0.00118903 0)
(28.6939 0.00112382 0)
(28.6554 0.00106762 0)
(28.6201 0.00101778 0)
(28.5876 0.000973348 0)
(28.5577 0.000933476 0)
(28.53 0.000897265 0)
(28.5044 0.000863872 0)
(28.4807 0.000832647 0)
(28.4586 0.000803101 0)
(28.4381 0.000774986 0)
(28.419 0.000748214 0)
(28.4012 0.000722402 0)
(28.3847 0.00069738 0)
(28.3694 0.000673043 0)
(28.3551 0.00064869 0)
(28.3418 0.000623811 0)
(28.3295 0.000597945 0)
(28.3181 0.000569935 0)
(28.3077 0.000538524 0)
(28.2982 0.000503079 0)
(28.2896 0.000461624 0)
(28.282 0.000410996 0)
(28.2756 0.000351975 0)
(28.2702 0.000281227 0)
(28.266 0.00019347 0)
(28.2633 8.69772e-05 0)
(28.262 -4.24497e-05 0)
(28.2624 -0.000196607 0)
(28.2648 -0.00038277 0)
(28.2692 -0.000609634 0)
(28.2761 -0.000878735 0)
(28.2856 -0.00119419 0)
(28.2981 -0.00157053 0)
(28.3139 -0.00201356 0)
(28.3334 -0.00253764 0)
(28.3571 -0.00314673 0)
(28.3852 -0.00386594 0)
(28.4187 -0.00469573 0)
(28.4575 -0.00567353 0)
(28.5031 -0.00680867 0)
(28.5465 -0.00791816 0)
(28.5843 -0.00890523 0)
(28.6244 -0.00993401 0)
(28.6669 -0.0110635 0)
(28.7118 -0.0122931 0)
(28.7592 -0.0136072 0)
(28.8089 -0.0150436 0)
(28.8613 -0.0165637 0)
(28.9157 -0.0182604 0)
(28.9731 -0.0200156 0)
(29.032 -0.0220569 0)
(29.0949 -0.024084 0)
(29.1582 -0.0266146 0)
(29.2273 -0.0289714 0)
(29.2945 -0.0322419 0)
(29.3719 -0.0350865 0)
(29.4422 -0.0394719 0)
(29.5318 -0.0434388 0)
(29.6031 -0.0493155 0)
(29.7143 -0.0568869 0)
(29.7811 -0.0645972 0)
(29.9378 -0.08457 0)
(29.9836 -0.102002 0)
(30.2416 -0.161776 0)
(30.19 -0.293279 0)
(43.4214 0.147838 0)
(39.1149 0.0673104 0)
(36.3008 0.0342252 0)
(34.606 0.0209793 0)
(33.5153 0.0143911 0)
(32.7617 0.0106304 0)
(32.2088 0.00833362 0)
(31.7818 0.00680133 0)
(31.4437 0.00567149 0)
(31.1701 0.0048404 0)
(30.9435 0.00421365 0)
(30.7529 0.00371389 0)
(30.5907 0.00331195 0)
(30.4511 0.00299037 0)
(30.3293 0.0027261 0)
(30.2224 0.00249809 0)
(30.128 0.00229918 0)
(30.0443 0.00212893 0)
(29.9695 0.00198489 0)
(29.9023 0.00186147 0)
(29.8415 0.00175219 0)
(29.7864 0.00165562 0)
(29.7364 0.00156486 0)
(29.6908 0.00147935 0)
(29.6492 0.001405 0)
(29.6111 0.00133902 0)
(29.5761 0.00128019 0)
(29.5438 0.0012274 0)
(29.514 0.00117947 0)
(29.4864 0.00113531 0)
(29.4608 0.00109408 0)
(29.437 0.00105514 0)
(29.4149 0.00101815 0)
(29.3944 0.000982956 0)
(29.3753 0.000949096 0)
(29.3575 0.000916331 0)
(29.3409 0.00088449 0)
(29.3255 0.000852719 0)
(29.3112 0.000820358 0)
(29.2979 0.000786776 0)
(29.2856 0.000750561 0)
(29.2743 0.000710132 0)
(29.264 0.000664568 0)
(29.2547 0.00061149 0)
(29.2464 0.000547025 0)
(29.2392 0.000471711 0)
(29.2332 0.000381558 0)
(29.2285 0.000270196 0)
(29.2251 0.000135187 0)
(29.2233 -2.87843e-05 0)
(29.2233 -0.000224355 0)
(29.2251 -0.000460198 0)
(29.2291 -0.000746756 0)
(29.2356 -0.00108714 0)
(29.2447 -0.00148658 0)
(29.2568 -0.00196259 0)
(29.2723 -0.00252254 0)
(29.2914 -0.00318474 0)
(29.3148 -0.00395425 0)
(29.3426 -0.00486243 0)
(29.3759 -0.00591017 0)
(29.4144 -0.00714388 0)
(29.4596 -0.00857481 0)
(29.5028 -0.00997266 0)
(29.5404 -0.0112173 0)
(29.5803 -0.0125152 0)
(29.6226 -0.0139361 0)
(29.6673 -0.0154827 0)
(29.7145 -0.0171348 0)
(29.764 -0.0189395 0)
(29.8161 -0.0208487 0)
(29.8702 -0.0229763 0)
(29.9273 -0.0251787 0)
(29.9859 -0.0277309 0)
(30.0483 -0.0302723 0)
(30.1113 -0.0334243 0)
(30.1798 -0.0363754 0)
(30.2466 -0.0404325 0)
(30.3231 -0.0439722 0)
(30.3929 -0.0494234 0)
(30.4812 -0.0542074 0)
(30.5517 -0.0617308 0)
(30.661 -0.0701799 0)
(30.7265 -0.0811308 0)
(30.8782 -0.10143 0)
(30.9227 -0.126439 0)
(31.1584 -0.182906 0)
(31.1118 -0.306722 0)
(44.2456 0.160427 0)
(40.6869 0.0827715 0)
(37.8758 0.0450323 0)
(36.0672 0.0280426 0)
(34.8802 0.0192706 0)
(34.0547 0.014225 0)
(33.4474 0.0111335 0)
(32.9784 0.00906977 0)
(32.607 0.00755347 0)
(32.3065 0.0064375 0)
(32.0577 0.00559581 0)
(31.8486 0.00492621 0)
(31.6708 0.00438804 0)
(31.5178 0.00395736 0)
(31.3846 0.00360353 0)
(31.2676 0.00329927 0)
(31.1646 0.00303461 0)
(31.0731 0.00280819 0)
(30.9915 0.0026164 0)
(30.9181 0.00245198 0)
(30.8519 0.0023066 0)
(30.7919 0.00217769 0)
(30.7374 0.00205762 0)
(30.6878 0.00194546 0)
(30.6425 0.00184724 0)
(30.601 0.00175998 0)
(30.5629 0.00168216 0)
(30.5278 0.00161229 0)
(30.4954 0.00154888 0)
(30.4654 0.00149053 0)
(30.4376 0.00143612 0)
(30.4118 0.00138484 0)
(30.3878 0.00133621 0)
(30.3655 0.00129001 0)
(30.3447 0.00124566 0)
(30.3254 0.00120284 0)
(30.3074 0.00116127 0)
(30.2906 0.00111994 0)
(30.275 0.00107797 0)
(30.2606 0.00103453 0)
(30.2472 0.000987912 0)
(30.2348 0.000936133 0)
(30.2235 0.000877895 0)
(30.2133 0.000810357 0)
(30.2041 0.000728846 0)
(30.1961 0.000633438 0)
(30.1893 0.000519424 0)
(30.1838 0.000379231 0)
(30.1798 0.000209478 0)
(30.1773 3.50579e-06 0)
(30.1766 -0.000242457 0)
(30.1778 -0.000538639 0)