/*--------------------------------*- C++ -*----------------------------------*\
| =========                 |                                                 |
| \\      /  F ield         | OpenFOAM: The Open Source CFD Toolbox           |
|  \\    /   O peration     | Version:  v2006                                 |
|   \\  /    A nd           | Website:  www.openfoam.com                      |
|    \\/     M anipulation  |                                                 |
\*---------------------------------------------------------------------------*/
FoamFile
{
    version     2.0;
    format      ascii;
    class       volVectorField;
    location    "10000";
    object      U;
}
// * * * * * * * * * * * * * * * * * * * * * * * * * * * * * * * * * * * * * //

dimensions      [0 1 -1 0 0 0 0];


internalField   nonuniform List<vector> 
20540
(
(37.8385 -0.000183665 0)
(50.7167 0.00470451 0)
(37.8504 -0.000593278 0)
(50.6933 0.0138969 0)
(37.8817 -0.00108922 0)
(50.6356 0.0218728 0)
(37.9435 -0.00167412 0)
(50.5347 0.028693 0)
(38.0504 -0.00235993 0)
(50.3812 0.0349604 0)
(38.2211 -0.00315636 0)
(50.164 0.0410592 0)
(38.4777 -0.00406626 0)
(49.872 0.0469812 0)
(38.8432 -0.00508333 0)
(49.4946 0.0525469 0)
(39.3381 -0.00618857 0)
(49.0243 0.0575139 0)
(39.9766 -0.00734559 0)
(48.459 0.0615868 0)
(40.7632 -0.0084965 0)
(47.8052 0.0644308 0)
(41.6888 -0.00955881 0)
(47.0818 0.0657289 0)
(42.7191 -0.0104108 0)
(46.3236 0.0652838 0)
(43.7684 -0.0108366 0)
(45.5822 0.0631351 0)
(44.6694 -0.0104333 0)
(44.9292 0.0594731 0)
(45.1696 -0.00928537 0)
(44.5815 0.0551746 0)
(45.0754 -0.0094394 0)
(44.9105 0.0548933 0)
(44.9607 -0.00958158 0)
(45.0344 0.0547179 0)
(45.0011 -0.00918119 0)
(44.9704 0.0535518 0)
(45.0038 -0.00898642 0)
(44.9739 0.0524864 0)
(45.001 -0.00859621 0)
(44.9779 0.0509954 0)
(45.0015 -0.00824727 0)
(44.9789 0.0493182 0)
(45.0017 -0.00777816 0)
(44.9807 0.0472742 0)
(45.0018 -0.00724911 0)
(44.9827 0.0448455 0)
(45.0019 -0.00663717 0)
(44.985 0.0419601 0)
(45.002 -0.00593899 0)
(44.9876 0.0385371 0)
(45.0022 -0.00515512 0)
(44.9905 0.0344866 0)
(45.0023 -0.00428596 0)
(44.9936 0.0297008 0)
(45.0025 -0.00334277 0)
(44.9966 0.0240514 0)
(45.0026 -0.00232459 0)
(44.9995 0.017356 0)
(45.0027 -0.00133175 0)
(45.0015 0.0102807 0)
(45.0028 -0.000432485 0)
(45.0025 0.00343737 0)
(45.0028 0.000441655 0)
(45.0025 -0.00337337 0)
(45.0027 0.00134187 0)
(45.0015 -0.0102181 0)
(45.0026 0.00231778 0)
(44.9996 -0.0171843 0)
(45.0025 0.00330487 0)
(44.9968 -0.023697 0)
(45.0023 0.00422178 0)
(44.9938 -0.0292263 0)
(45.0022 0.00506858 0)
(44.9909 -0.0339363 0)
(45.002 0.00583638 0)
(44.9881 -0.0379459 0)
(45.0019 0.00652382 0)
(44.9855 -0.0413543 0)
(45.0018 0.00712971 0)
(44.9832 -0.0442454 0)
(45.0017 0.0076618 0)
(44.9812 -0.0466955 0)
(45.0015 0.00811792 0)
(44.9795 -0.0487618 0)
(45.0013 0.00851661 0)
(44.9781 -0.0505049 0)
(45.0021 0.00881352 0)
(44.9762 -0.0519489 0)
(45.0041 0.00918906 0)
(44.9707 -0.0532633 0)
(44.9821 0.00928523 0)
(44.9924 -0.0540579 0)
(44.9813 0.00974422 0)
(45.039 -0.0552794 0)
(45.173 0.00911877 0)
(44.694 -0.0543576 0)
(44.9873 0.00987559 0)
(44.6863 -0.0571452 0)
(44.2935 0.0107248 0)
(45.2073 -0.0612485 0)
(43.3395 0.010679 0)
(45.8826 -0.0641629 0)
(42.3207 0.0100676 0)
(46.6112 -0.0656013 0)
(41.3575 0.0091598 0)
(47.3359 -0.0654009 0)
(40.5068 0.00810115 0)
(48.015 -0.0636145 0)
(39.7903 0.00698547 0)
(48.6222 -0.0604716 0)
(39.212 0.0058803 0)
(49.1438 -0.0562718 0)
(38.7654 0.00483282 0)
(49.5766 -0.0513107 0)
(38.4358 0.003872 0)
(49.9237 -0.045841 0)
(38.204 0.00301247 0)
(50.1928 -0.0400674 0)
(38.0492 0.00225848 0)
(50.3934 -0.0341348 0)
(37.9516 0.00160685 0)
(50.5357 -0.0280216 0)
(37.8948 0.00104865 0)
(50.6296 -0.0213455 0)
(37.8658 0.000573136 0)
(50.6835 -0.0135494 0)
(37.8547 0.000177919 0)
(50.7055 -0.00458761 0)
(5.29081 0.00562414 0)
(4.02142 1.45188e-05 0)
(3.70199 3.74996e-06 0)
(3.51158 2.5872e-06 0)
(3.38632 1.79124e-06 0)
(3.29768 1.36245e-06 0)
(3.23122 1.09421e-06 0)
(3.17848 9.02683e-07 0)
(3.13613 7.54093e-07 0)
(3.10142 6.49449e-07 0)
(3.07217 5.70614e-07 0)
(3.04728 6.03613e-07 0)
(3.02602 -1.59384e-05 0)
(2.97085 -1.76628e-05 0)
(2.95463 -3.59739e-07 0)
(2.94058 -9.25166e-08 0)
(2.92816 -5.4451e-08 0)
(2.9171 -4.39067e-08 0)
(2.90717 -3.55778e-08 0)
(2.89819 -2.7879e-08 0)
(2.89004 -1.8452e-07 0)
(2.8825 2.12554e-05 0)
(2.90902 2.16574e-05 0)
(2.9031 7.267e-07 0)
(2.8973 2.6197e-07 0)
(2.89194 1.93149e-07 0)
(2.88701 1.83597e-07 0)
(2.88246 1.76467e-07 0)
(2.87824 1.70086e-07 0)
(2.87433 1.64154e-07 0)
(2.87069 1.5854e-07 0)
(2.86731 1.53155e-07 0)
(2.86417 1.47943e-07 0)
(2.86125 1.42843e-07 0)
(2.85853 1.38807e-07 0)
(2.856 8.72915e-08 0)
(2.8536 2.13175e-08 0)
(2.85136 1.10773e-07 0)
(2.8494 1.63026e-07 0)
(2.84752 3.1982e-08 0)
(2.84574 8.00835e-08 0)
(2.84424 1.47516e-07 0)
(2.84283 -1.45402e-09 0)
(2.84153 -3.83257e-08 0)
(2.84046 -1.18497e-08 0)
(2.83952 -1.72023e-07 0)
(2.83876 -1.4094e-07 0)
(2.83845 2.17414e-08 0)
(2.83825 -2.64503e-07 0)
(2.83822 -1.5099e-07 0)
(2.83878 -2.81027e-08 0)
(2.83964 -5.31244e-07 0)
(2.84086 -1.97385e-07 0)
(2.84279 -6.35567e-08 0)
(2.8451 -7.61689e-07 0)
(2.84804 -8.63386e-07 0)
(2.85174 -9.77362e-07 0)
(2.85613 -1.43812e-06 0)
(2.86142 -1.7805e-06 0)
(2.86767 -1.97493e-06 0)
(2.87511 -2.46517e-06 0)
(2.88365 -2.95274e-06 0)
(2.89364 -3.59333e-06 0)
(2.90313 -4.95287e-06 0)
(2.91136 -5.49085e-06 0)
(2.92016 -6.02043e-06 0)
(2.92957 -6.80163e-06 0)
(2.93957 -7.65858e-06 0)
(2.95016 -8.65351e-06 0)
(2.96134 -9.72942e-06 0)
(2.97314 -1.10211e-05 0)
(2.98553 -1.23265e-05 0)
(2.99865 -1.40887e-05 0)
(3.01229 -1.55962e-05 0)
(3.02691 -1.82564e-05 0)
(3.04184 -1.97191e-05 0)
(3.05834 -2.43986e-05 0)
(3.0746 -2.48385e-05 0)
(3.09375 -3.46575e-05 0)
(3.11135 -3.09924e-05 0)
(3.13467 -5.47333e-05 0)
(3.1542 -3.87164e-05 0)
(3.18412 -0.000100508 0)
(3.21012 -6.36787e-05 0)
(3.24776 -0.000236561 0)
(3.31698 -0.000276392 0)
(3.34198 -0.00156694 0)
(3.36096 -0.0275862 0)
(15.7732 0.0169423 0)
(12.5364 0.000778137 0)
(11.5844 0.000269613 0)
(11.0168 0.000174088 0)
(10.6409 0.000122309 0)
(10.3738 9.19907e-05 0)
(10.1731 7.33108e-05 0)
(10.0136 6.06136e-05 0)
(9.88524 5.09313e-05 0)
(9.77987 4.38577e-05 0)
(9.69099 3.85058e-05 0)
(9.61528 3.43658e-05 0)
(9.55061 -1.19365e-05 0)
(9.42801 -1.8816e-05 0)
(9.37741 2.41344e-05 0)
(9.33352 2.28235e-05 0)
(9.29473 2.11048e-05 0)
(9.26017 1.95964e-05 0)
(9.22913 1.83287e-05 0)
(9.20108 1.72437e-05 0)
(9.17559 1.58657e-05 0)
(9.15195 7.0859e-05 0)
(9.19361 7.04313e-05 0)
(9.17547 1.55055e-05 0)
(9.15772 1.34994e-05 0)
(9.14134 1.27113e-05 0)
(9.12626 1.21605e-05 0)
(9.11232 1.16711e-05 0)
(9.0994 1.12257e-05 0)
(9.08742 1.08127e-05 0)
(9.07628 1.04238e-05 0)
(9.06594 1.00536e-05 0)
(9.05631 9.69916e-06 0)
(9.04736 9.35848e-06 0)
(9.03903 9.03251e-06 0)
(9.03128 8.58745e-06 0)
(9.02397 8.10019e-06 0)
(9.01718 8.03999e-06 0)
(9.01108 7.89007e-06 0)
(9.00531 7.20116e-06 0)
(8.99992 6.9607e-06 0)
(8.99521 6.76259e-06 0)
(8.99084 5.88343e-06 0)
(8.98688 5.23956e-06 0)
(8.98355 4.75297e-06 0)
(8.98055 3.48327e-06 0)
(8.97809 2.37543e-06 0)
(8.9769 1.79559e-06 0)
(8.97611 -2.29171e-07 0)
(8.97591 -1.97776e-06 0)
(8.97728 -3.67118e-06 0)
(8.97959 -7.55402e-06 0)
(8.9831 -1.01262e-05 0)
(8.98842 -1.31552e-05 0)
(8.99498 -1.91161e-05 0)
(9.00338 -2.4818e-05 0)
(9.01386 -3.13316e-05 0)
(9.02643 -3.96529e-05 0)
(9.04163 -4.90552e-05 0)
(9.05956 -5.98157e-05 0)
(9.08078 -7.27749e-05 0)
(9.1053 -8.78339e-05 0)
(9.13381 -0.000105851 0)
(9.16073 -0.00012529 0)
(9.18427 -0.000140521 0)
(9.20945 -0.000156858 0)
(9.23628 -0.000175597 0)
(9.26477 -0.000195837 0)
(9.29488 -0.000217894 0)
(9.32662 -0.000241989 0)
(9.36009 -0.000268311 0)
(9.39513 -0.000297256 0)
(9.43218 -0.000328947 0)
(9.47056 -0.000364176 0)
(9.51163 -0.000403396 0)
(9.55339 -0.000446851 0)
(9.59938 -0.000498177 0)
(9.64448 -0.000552435 0)
(9.69728 -0.000627636 0)
(9.74554 -0.000693023 0)
(9.80877 -0.000834057 0)
(9.86147 -0.000891196 0)
(9.93997 -0.00125104 0)
(10.0084 -0.00122128 0)
(10.0992 -0.00257783 0)
(10.2703 -0.00244132 0)
(10.2838 -0.00459137 0)
(11.0397 -0.154819 0)
(24.0932 0.0283842 0)
(20.0512 0.00260156 0)
(18.7807 0.000966695 0)
(18.0171 0.000629397 0)
(17.5038 0.000447561 0)
(17.135 0.000339135 0)
(16.8557 0.000271681 0)
(16.6323 0.000225574 0)
(16.4517 0.00019021 0)
(16.3027 0.000164212 0)
(16.1766 0.000144469 0)
(16.0689 0.000128604 0)
(15.9764 5.29525e-05 0)
(15.9205 3.84407e-05 0)
(15.8482 9.52216e-05 0)
(15.7843 8.87497e-05 0)
(15.7275 8.20305e-05 0)
(15.6768 7.61994e-05 0)
(15.6312 7.12952e-05 0)
(15.5899 6.70907e-05 0)
(15.5524 6.26769e-05 0)
(15.5179 0.000144068 0)
(15.4659 0.000141131 0)
(15.4379 5.59839e-05 0)
(15.4121 5.08823e-05 0)
(15.3884 4.82148e-05 0)
(15.3666 4.61424e-05 0)
(15.3464 4.4293e-05 0)
(15.3277 4.26092e-05 0)
(15.3104 4.10474e-05 0)
(15.2943 3.95759e-05 0)
(15.2793 3.81755e-05 0)
(15.2654 3.68345e-05 0)
(15.2524 3.55458e-05 0)
(15.2403 3.43083e-05 0)
(15.2291 3.28882e-05 0)
(15.2188 3.14353e-05 0)
(15.2091 3.06833e-05 0)
(15.2001 2.97019e-05 0)
(15.1918 2.78605e-05 0)
(15.1842 2.67171e-05 0)
(15.1772 2.54544e-05 0)
(15.171 2.30098e-05 0)
(15.1654 2.08204e-05 0)
(15.1606 1.83884e-05 0)
(15.1566 1.40816e-05 0)
(15.1535 1.04505e-05 0)
(15.1514 7.57332e-06 0)
(15.1502 7.00114e-07 0)
(15.1504 -6.07718e-06 0)
(15.152 -1.30173e-05 0)
(15.1552 -2.47764e-05 0)
(15.1603 -3.526e-05 0)
(15.1672 -4.82627e-05 0)
(15.1764 -6.75839e-05 0)
(15.1882 -8.80262e-05 0)
(15.2028 -0.000111921 0)
(15.2205 -0.000140838 0)
(15.2419 -0.000174157 0)
(15.2671 -0.000213467 0)
(15.2969 -0.000259436 0)
(15.3314 -0.000312969 0)
(15.372 -0.000376908 0)
(15.4109 -0.000441989 0)
(15.4445 -0.000495444 0)
(15.4801 -0.000552277 0)
(15.5178 -0.000616754 0)
(15.5578 -0.000686513 0)
(15.5999 -0.00076198 0)
(15.6443 -0.000844232 0)
(15.691 -0.000933074 0)
(15.7399 -0.00103115 0)
(15.7913 -0.0011361 0)
(15.8445 -0.001255 0)
(15.9013 -0.00138095 0)
(15.9589 -0.00152838 0)
(16.022 -0.00168469 0)
(16.0838 -0.00187366 0)
(16.1556 -0.0020841 0)
(16.2211 -0.00232664 0)
(16.3059 -0.00269343 0)
(16.3768 -0.00294074 0)
(16.479 -0.00388516 0)
(16.5702 -0.00378159 0)
(16.6806 -0.00763028 0)
(16.8988 -0.00534869 0)
(16.8785 -0.0222357 0)
(18.0101 -0.194838 0)
(29.1145 0.0386919 0)
(24.6035 0.00506091 0)
(23.1497 0.00195611 0)
(22.3099 0.00126245 0)
(21.7533 0.000898918 0)
(21.3569 0.00068233 0)
(21.0583 0.000547504 0)
(20.8206 0.000455351 0)
(20.6288 0.000384634 0)
(20.4711 0.000332484 0)
(20.338 0.00029286 0)
(20.2243 0.000260393 0)
(20.1266 0.000213395 0)
(20.0772 0.000192267 0)
(20.0021 0.000195667 0)
(19.9353 0.000180595 0)
(19.8759 0.000166843 0)
(19.8229 0.000155048 0)
(19.7752 0.000145116 0)
(19.7321 0.000136595 0)
(19.6929 0.000128703 0)
(19.6571 0.000149425 0)
(19.591 0.000143208 0)
(19.561 0.000110202 0)
(19.5339 0.000103634 0)
(19.5091 9.8718e-05 0)
(19.4862 9.45196e-05 0)
(19.4651 9.07588e-05 0)
(19.4455 8.73344e-05 0)
(19.4273 8.41592e-05 0)
(19.4104 8.11684e-05 0)
(19.3947 7.83221e-05 0)
(19.3801 7.55961e-05 0)
(19.3666 7.29758e-05 0)
(19.354 7.04519e-05 0)
(19.3422 6.79172e-05 0)
(19.3314 6.53832e-05 0)
(19.3213 6.31242e-05 0)
(19.3118 6.07597e-05 0)
(19.3032 5.79102e-05 0)
(19.2953 5.51257e-05 0)
(19.2879 5.20703e-05 0)
(19.2814 4.80825e-05 0)
(19.2756 4.3646e-05 0)
(19.2706 3.86276e-05 0)
(19.2665 3.16713e-05 0)
(19.2635 2.36591e-05 0)
(19.2611 1.54188e-05 0)
(19.26 3.58019e-06 0)
(19.2605 -1.06894e-05 0)
(19.2621 -2.71493e-05 0)
(19.2655 -4.82638e-05 0)
(19.2708 -7.15938e-05 0)
(19.2779 -0.000100354 0)
(19.2877 -0.000136531 0)
(19.3 -0.000177722 0)
(19.3153 -0.000226007 0)
(19.334 -0.000283735 0)
(19.3565 -0.000350913 0)
(19.383 -0.000430044 0)
(19.4143 -0.000522023 0)
(19.4505 -0.000629735 0)
(19.4933 -0.000756414 0)
(19.5345 -0.000881484 0)
(19.5699 -0.000989259 0)
(19.6073 -0.00110457 0)
(19.6469 -0.00123249 0)
(19.6889 -0.00137083 0)
(19.7332 -0.00151986 0)
(19.7798 -0.00168227 0)
(19.8288 -0.00185661 0)
(19.88 -0.00204977 0)
(19.934 -0.00225399 0)
(19.9897 -0.00248796 0)
(20.0493 -0.00272963 0)
(20.1095 -0.0030209 0)
(20.1757 -0.00331338 0)
(20.2401 -0.0036911 0)
(20.3152 -0.00406992 0)
(20.3837 -0.00456405 0)
(20.4717 -0.0052036 0)
(20.5463 -0.00572247 0)
(20.6501 -0.00740724 0)
(20.7486 -0.007124 0)
(20.8514 -0.0143125 0)
(21.0895 -0.00801992 0)
(21.0371 -0.049008 0)
(22.1025 -0.201631 0)
(32.3835 0.0494542 0)
(27.4668 0.00806322 0)
(25.8116 0.00317927 0)
(24.8878 0.00202548 0)
(24.2851 0.00143691 0)
(23.8603 0.00108859 0)
(23.5425 0.000872347 0)
(23.2912 0.000724936 0)
(23.0892 0.000612153 0)
(22.9237 0.00052892 0)
(22.7844 0.000465752 0)
(22.6658 0.0004138 0)
(22.5641 0.000370256 0)
(22.4913 0.000337432 0)
(22.4134 0.000310737 0)
(22.3443 0.000286059 0)
(22.283 0.000264241 0)
(22.2283 0.000245559 0)
(22.1792 0.000229816 0)
(22.1347 0.000216312 0)
(22.0944 0.000204289 0)
(22.0576 0.000194677 0)
(22.0092 0.000184217 0)
(21.9784 0.000173386 0)
(21.9505 0.000164634 0)
(21.9249 0.000157066 0)
(21.9013 0.000150399 0)
(21.8795 0.000144419 0)
(21.8594 0.000138975 0)
(21.8407 0.000133931 0)
(21.8233 0.000129183 0)
(21.8071 0.000124667 0)
(21.7921 0.000120342 0)
(21.7782 0.000116185 0)
(21.7652 0.000112178 0)
(21.7531 0.00010826 0)
(21.7419 0.000104378 0)
(21.7315 0.000100581 0)
(21.7217 9.66938e-05 0)
(21.7128 9.24506e-05 0)
(21.7046 8.79231e-05 0)
(21.6971 8.29006e-05 0)
(21.6903 7.68814e-05 0)
(21.6843 6.99073e-05 0)
(21.6791 6.18327e-05 0)
(21.6749 5.147e-05 0)
(21.6716 3.89826e-05 0)
(21.6692 2.49528e-05 0)
(21.6681 6.68291e-06 0)
(21.6684 -1.59419e-05 0)
(21.67 -4.27455e-05 0)
(21.6734 -7.51605e-05 0)
(21.6787 -0.000112939 0)
(21.686 -0.000159288 0)
(21.6959 -0.000215085 0)
(21.7085 -0.000279936 0)
(21.7241 -0.000356268 0)
(21.7431 -0.000447174 0)
(21.766 -0.000553061 0)
(21.793 -0.000677833 0)
(21.8249 -0.000822498 0)
(21.8618 -0.000992501 0)
(21.9053 -0.00119153 0)
(21.9469 -0.00138647 0)
(21.983 -0.00155676 0)
(22.021 -0.00173811 0)
(22.0613 -0.00193862 0)
(22.1041 -0.00215571 0)
(22.1492 -0.00238904 0)
(22.1966 -0.00264354 0)
(22.2466 -0.00291571 0)
(22.2987 -0.00321815 0)
(22.3537 -0.00353571 0)
(22.4104 -0.00390209 0)
(22.4711 -0.00427515 0)
(22.5323 -0.00473247 0)
(22.5997 -0.00517805 0)
(22.6651 -0.005774 0)
(22.7415 -0.0063402 0)
(22.8111 -0.0071248 0)
(22.8999 -0.00806253 0)
(22.9761 -0.00889774 0)
(23.0796 -0.0113789 0)
(23.18 -0.0109557 0)
(23.2815 -0.0214542 0)
(23.5074 -0.0125692 0)
(23.502 -0.0702919 0)
(24.2501 -0.203847 0)
(34.871 0.0615225 0)
(29.6482 0.012062 0)
(27.7846 0.00483837 0)
(26.7658 0.00303433 0)
(26.1088 0.00213787 0)
(25.6492 0.00161258 0)
(25.3073 0.00128802 0)
(25.0383 0.00106774 0)
(24.8228 0.000900118 0)
(24.6467 0.000776485 0)
(24.499 0.00068287 0)
(24.3734 0.000606095 0)
(24.2658 0.000545099 0)
(24.1777 0.000496148 0)
(24.0955 0.000453627 0)
(24.0229 0.000417283 0)
(23.9584 0.000385345 0)
(23.9009 0.000357969 0)
(23.8493 0.000334886 0)
(23.8027 0.000315099 0)
(23.7604 0.000297575 0)
(23.722 0.000279329 0)
(23.6817 0.000264064 0)
(23.6496 0.000252258 0)
(23.6204 0.000239909 0)
(23.5936 0.000228929 0)
(23.5689 0.00021918 0)
(23.5461 0.000210432 0)
(23.525 0.000202475 0)
(23.5054 0.000195109 0)
(23.4872 0.000188183 0)
(23.4703 0.0001816 0)
(23.4546 0.0001753 0)
(23.44 0.000169247 0)
(23.4264 0.000163412 0)
(23.4137 0.000157718 0)
(23.402 0.000152088 0)
(23.391 0.000146541 0)
(23.3809 0.000140856 0)
(23.3715 0.000134721 0)
(23.3629 0.000128145 0)
(23.355 0.000120811 0)
(23.3479 0.000112113 0)
(23.3416 0.000102049 0)
(23.3361 9.01951e-05 0)
(23.3315 7.53104e-05 0)
(23.328 5.76236e-05 0)
(23.3254 3.68285e-05 0)
(23.3241 1.02467e-05 0)
(23.3243 -2.22754e-05 0)
(23.3259 -6.11287e-05 0)
(23.3293 -0.000107674 0)
(23.3346 -0.000162766 0)
(23.342 -0.000230074 0)
(23.3521 -0.000310105 0)
(23.3649 -0.000403889 0)
(23.3808 -0.000514463 0)
(23.4002 -0.000645833 0)
(23.4236 -0.000798816 0)
(23.4511 -0.000979291 0)
(23.4838 -0.00118818 0)
(23.5216 -0.00143431 0)
(23.5659 -0.00172217 0)
(23.6082 -0.00200344 0)
(23.645 -0.00225019 0)
(23.6838 -0.00251141 0)
(23.7251 -0.0028005 0)
(23.7687 -0.003114 0)
(23.8148 -0.00345046 0)
(23.8632 -0.00381784 0)
(23.9143 -0.00420966 0)
(23.9674 -0.00464617 0)
(24.0236 -0.00510223 0)
(24.0814 -0.00563122 0)
(24.1433 -0.00616446 0)
(24.2056 -0.00682589 0)
(24.2743 -0.00745739 0)
(24.3409 -0.00832113 0)
(24.4185 -0.00911428 0)
(24.4892 -0.0102538 0)
(24.5791 -0.0115454 0)
(24.6561 -0.0127777 0)
(24.7608 -0.0161605 0)
(24.8589 -0.0157279 0)
(24.9691 -0.0295768 0)
(25.1588 -0.0194536 0)
(25.2469 -0.0879976 0)
(25.6511 -0.21396 0)
(36.9599 0.0748019 0)
(31.5378 0.0173021 0)
(29.4664 0.00709955 0)
(28.3455 0.00439092 0)
(27.629 0.00307231 0)
(27.1307 0.00230697 0)
(26.7617 0.00183618 0)
(26.4726 0.00151805 0)
(26.2417 0.00127735 0)
(26.0534 0.00109994 0)
(25.8958 0.000965905 0)
(25.7621 0.000856442 0)
(25.6478 0.000767911 0)
(25.5501 0.000697758 0)
(25.463 0.000639016 0)
(25.386 0.000587559 0)
(25.3178 0.00054239 0)
(25.2571 0.000503635 0)
(25.2026 0.000470937 0)
(25.1534 0.000442926 0)
(25.1088 0.000418088 0)
(25.0682 0.000394781 0)
(25.0296 0.000373391 0)
(24.9959 0.000354342 0)
(24.9651 0.000336973 0)
(24.9368 0.000321519 0)
(24.9108 0.000307767 0)
(24.8868 0.000295429 0)
(24.8645 0.000284213 0)
(24.8439 0.000273842 0)
(24.8248 0.000264102 0)
(24.807 0.000254853 0)
(24.7904 0.000246009 0)
(24.775 0.000237515 0)
(24.7607 0.00022933 0)
(24.7474 0.000221341 0)
(24.735 0.00021345 0)
(24.7235 0.000205685 0)
(24.7128 0.000197714 0)
(24.7029 0.000189129 0)
(24.6938 0.000179952 0)
(24.6855 0.000169699 0)
(24.678 0.000157566 0)
(24.6713 0.000143577 0)
(24.6655 0.000126951 0)
(24.6606 0.000106241 0)
(24.6568 8.19616e-05 0)
(24.654 5.2789e-05 0)
(24.6525 1.56565e-05 0)
(24.6524 -2.93275e-05 0)
(24.6539 -8.3223e-05 0)
(24.6573 -0.000147696 0)
(24.6625 -0.000224447 0)
(24.6701 -0.00031801 0)
(24.6802 -0.000428751 0)
(24.6932 -0.000558994 0)
(24.7094 -0.000712625 0)
(24.7291 -0.00089493 0)
(24.7529 -0.00110712 0)
(24.781 -0.00135763 0)
(24.8143 -0.00164726 0)
(24.8528 -0.00198892 0)
(24.898 -0.00238792 0)
(24.941 -0.00277769 0)
(24.9785 -0.00312087 0)
(25.0181 -0.00348212 0)
(25.0602 -0.00388192 0)
(25.1047 -0.00431611 0)
(25.1517 -0.00478152 0)
(25.201 -0.00529012 0)
(25.253 -0.00583124 0)
(25.3071 -0.0064352 0)
(25.3643 -0.00706367 0)
(25.4231 -0.00779525 0)
(25.486 -0.00852721 0)
(25.5493 -0.0094421 0)
(25.619 -0.0103034 0)
(25.6866 -0.0114976 0)
(25.7652 -0.0125698 0)
(25.8368 -0.0141462 0)
(25.9276 -0.0158566 0)
(26.0046 -0.0176065 0)
(26.1116 -0.0219555 0)
(26.2039 -0.0218511 0)
(26.3289 -0.0386108 0)
(26.4729 -0.0296046 0)
(26.6541 -0.102842 0)
(26.8083 -0.230793 0)
(38.8076 0.0891341 0)
(33.298 0.0239805 0)
(31.0229 0.0101307 0)
(29.7926 0.00619815 0)
(29.011 0.0043092 0)
(28.4699 0.00322186 0)
(28.0708 0.00255546 0)
(27.7594 0.00210697 0)
(27.5113 0.00176955 0)
(27.3094 0.00152102 0)
(27.1408 0.00133362 0)
(26.9981 0.00118122 0)
(26.8761 0.00105696 0)
(26.7708 0.000959172 0)
(26.6782 0.000878733 0)
(26.5964 0.000807584 0)
(26.524 0.000745179 0)
(26.4595 0.00069161 0)
(26.4018 0.000646382 0)
(26.3497 0.000607659 0)
(26.3025 0.000573299 0)
(26.2595 0.000542887 0)
(26.22 0.000513611 0)
(26.1843 0.000485735 0)
(26.1518 0.000461797 0)
(26.1219 0.000440543 0)
(26.0944 0.000421614 0)
(26.069 0.000404633 0)
(26.0456 0.000389206 0)
(26.0238 0.000374956 0)
(26.0036 0.000361588 0)
(25.9848 0.000348908 0)
(25.9673 0.000336795 0)
(25.9511 0.000325167 0)
(25.936 0.000313969 0)
(25.9219 0.000303046 0)
(25.9088 0.000292265 0)
(25.8967 0.00028166 0)
(25.8854 0.000270777 0)
(25.875 0.000259085 0)
(25.8654 0.000246602 0)
(25.8566 0.00023266 0)
(25.8486 0.000216214 0)
(25.8415 0.000197278 0)
(25.8353 0.000174685 0)
(25.83 0.000146677 0)
(25.8259 0.000114056 0)
(25.8228 7.44698e-05 0)
(25.8211 2.42397e-05 0)
(25.8208 -3.63008e-05 0)
(25.8222 -0.000108958 0)
(25.8254 -0.000195861 0)
(25.8306 -0.000299535 0)
(25.8381 -0.00042572 0)
(25.8483 -0.000574815 0)
(25.8613 -0.000750493 0)
(25.8777 -0.000957659 0)
(25.8976 -0.00120333 0)
(25.9218 -0.00148915 0)
(25.9503 -0.0018267 0)
(25.9841 -0.00221665 0)
(26.0232 -0.00267681 0)
(26.069 -0.0032132 0)
(26.1127 -0.00373738 0)
(26.1507 -0.00420056 0)
(26.191 -0.00468589 0)
(26.2337 -0.0052224 0)
(26.2788 -0.00580574 0)
(26.3265 -0.00643033 0)
(26.3765 -0.00711324 0)
(26.4293 -0.00783832 0)
(26.4841 -0.00864844 0)
(26.5421 -0.00948888 0)
(26.6016 -0.0104691 0)
(26.6653 -0.0114447 0)
(26.7294 -0.0126691 0)
(26.7998 -0.0138116 0)
(26.8681 -0.0154066 0)
(26.9472 -0.0168177 0)
(27.0194 -0.0189261 0)
(27.1109 -0.021117 0)
(27.1871 -0.023553 0)
(27.2969 -0.02885 0)
(27.3817 -0.0296451 0)
(27.5225 -0.0484378 0)
(27.6241 -0.0434005 0)
(27.8708 -0.116088 0)
(27.8864 -0.249478 0)
(40.4765 0.104333 0)
(35.0037 0.0323101 0)
(32.5339 0.0141447 0)
(31.186 0.00859252 0)
(30.3327 0.00594037 0)
(29.7439 0.00442375 0)
(29.3109 0.00349691 0)
(28.9743 0.00287533 0)
(28.7068 0.00241027 0)
(28.4895 0.00206797 0)
(28.3085 0.00181026 0)
(28.1555 0.00160155 0)
(28.0249 0.00143134 0)
(27.912 0.00129744 0)
(27.8131 0.00118779 0)
(27.726 0.00109098 0)
(27.6488 0.00100618 0)
(27.5803 0.000933373 0)
(27.5188 0.000871866 0)
(27.4635 0.000819223 0)
(27.4133 0.000772528 0)
(27.3678 0.000731809 0)
(27.3262 0.000692346 0)
(27.2884 0.000654204 0)
(27.2538 0.000621799 0)
(27.2221 0.000593061 0)
(27.193 0.000567452 0)
(27.1661 0.000544482 0)
(27.1413 0.000523625 0)
(27.1182 0.000504379 0)
(27.0968 0.000486346 0)
(27.077 0.000469262 0)
(27.0585 0.000452958 0)
(27.0413 0.000437321 0)
(27.0253 0.000422272 0)
(27.0104 0.00040761 0)
(26.9966 0.000393155 0)
(26.9837 0.000378928 0)
(26.9718 0.00036435 0)
(26.9607 0.000348745 0)
(26.9505 0.000332088 0)
(26.9412 0.000313514 0)
(26.9327 0.000291694 0)
(26.9251 0.000266574 0)
(26.9185 0.000236583 0)
(26.9128 0.000199544 0)
(26.9083 0.000156477 0)
(26.9049 0.000104025 0)
(26.9029 3.77124e-05 0)
(26.9023 -4.20386e-05 0)
(26.9035 -0.000137872 0)
(26.9065 -0.000252529 0)
(26.9116 -0.00038938 0)
(26.919 -0.000555679 0)
(26.9291 -0.000752093 0)
(26.9422 -0.000983796 0)
(26.9586 -0.00125685 0)
(26.9786 -0.0015805 0)
(27.0029 -0.00195691 0)
(27.0317 -0.00240148 0)
(27.0658 -0.00291479 0)
(27.1053 -0.00352042 0)
(27.1516 -0.00422516 0)
(27.1957 -0.00491409 0)
(27.2341 -0.00552471 0)
(27.2748 -0.00616249 0)
(27.3179 -0.00686619 0)
(27.3635 -0.00763187 0)
(27.4117 -0.00845101 0)
(27.4622 -0.00934678 0)
(27.5154 -0.0102963 0)
(27.5708 -0.0113576 0)
(27.6292 -0.0124563 0)
(27.6892 -0.0137382 0)
(27.7534 -0.0150103 0)
(27.8179 -0.0166082 0)
(27.8887 -0.0180925 0)
(27.9573 -0.0201685 0)
(28.0368 -0.021987 0)
(28.109 -0.0247398 0)
(28.201 -0.0274709 0)
(28.276 -0.0308133 0)
(28.3883 -0.036977 0)
(28.4654 -0.0393935 0)
(28.6188 -0.0592612 0)
(28.6894 -0.0605735 0)
(28.9663 -0.129834 0)
(28.9247 -0.266586 0)
(41.9817 0.120065 0)
(36.6892 0.0425007 0)
(34.0429 0.0194121 0)
(32.57 0.01176 0)
(31.6372 0.0080933 0)
(30.9947 0.00600571 0)
(30.5233 0.00473228 0)
(30.158 0.00388067 0)
(29.8681 0.00324688 0)
(29.6332 0.00278064 0)
(29.4379 0.00243002 0)
(29.2731 0.00214722 0)
(29.1326 0.00191716 0)
(29.0113 0.00173581 0)
(28.9052 0.00158733 0)
(28.8118 0.00145697 0)
(28.7292 0.00134296 0)
(28.6559 0.0012451 0)
(28.5903 0.00116236 0)
(28.5311 0.00109157 0)
(28.4776 0.00102883 0)
(28.429 0.000974036 0)
(28.3848 0.000921362 0)
(28.3445 0.000870661 0)
(28.3077 0.000827329 0)
(28.274 0.000788904 0)
(28.243 0.000754656 0)
(28.2144 0.000723936 0)
(28.188 0.000696058 0)
(28.1635 0.000670357 0)
(28.1407 0.000646307 0)
(28.1196 0.000623553 0)
(28.1 0.000601864 0)
(28.0817 0.000581085 0)
(28.0647 0.000561105 0)
(28.0489 0.00054167 0)
(28.0342 0.000522536 0)
(28.0205 0.000503693 0)
(28.0078 0.000484427 0)
(27.996 0.000463891 0)
(27.9852 0.000441973 0)
(27.9752 0.000417592 0)
(27.9661 0.000389089 0)
(27.958 0.000356269 0)
(27.9509 0.000317133 0)
(27.9448 0.000268967 0)
(27.9398 0.000212906 0)
(27.936 0.000144616 0)
(27.9336 5.86423e-05 0)
(27.9327 -4.47007e-05 0)
(27.9336 -0.000168993 0)
(27.9363 -0.000317773 0)
(27.9412 -0.000495307 0)
(27.9484 -0.000710655 0)
(27.9584 -0.000965062 0)
(27.9713 -0.00126543 0)
(27.9877 -0.00161911 0)
(28.0077 -0.00203816 0)
(28.032 -0.00252537 0)
(28.0608 -0.00310073 0)
(28.0951 -0.00376484 0)
(28.1347 -0.00454804 0)
(28.1813 -0.00545807 0)
(28.2256 -0.00634776 0)
(28.2642 -0.00713818 0)
(28.3051 -0.00796227 0)
(28.3485 -0.00886931 0)
(28.3943 -0.00985668 0)
(28.4427 -0.0109122 0)
(28.4934 -0.0120664 0)
(28.5469 -0.0132885 0)
(28.6024 -0.0146537 0)
(28.6611 -0.0160656 0)
(28.7213 -0.0177113 0)
(28.7856 -0.0193428 0)
(28.8503 -0.0213885 0)
(28.9211 -0.0232869 0)
(28.9899 -0.0259365 0)
(29.0692 -0.0282433 0)
(29.1413 -0.0317727 0)
(29.2332 -0.0351102 0)
(29.307 -0.0396178 0)
(29.4206 -0.0465624 0)
(29.4918 -0.0513244 0)
(29.6516 -0.0715808 0)
(29.7045 -0.0806166 0)
(29.9831 -0.145668 0)
(29.9274 -0.28165 0)
(43.3083 0.135769 0)
(38.3654 0.054693 0)
(35.5759 0.0262565 0)
(33.9727 0.0159451 0)
(32.9526 0.0109402 0)
(32.2498 0.00809496 0)
(31.7347 0.00636021 0)
(31.3363 0.00520238 0)
(31.0207 0.00434493 0)
(30.7653 0.00371435 0)
(30.5533 0.00324043 0)
(30.3747 0.00285965 0)
(30.2227 0.00255083 0)
(30.0915 0.00230678 0)
(29.977 0.00210679 0)
(29.8764 0.00193228 0)
(29.7875 0.00177996 0)
(29.7085 0.00164927 0)
(29.6379 0.00153871 0)
(29.5744 0.0014441 0)
(29.517 0.00136035 0)
(29.4649 0.00128681 0)
(29.4175 0.00121691 0)
(29.3743 0.00115025 0)
(29.3349 0.00109274 0)
(29.2988 0.00104171 0)
(29.2656 0.000996216 0)
(29.2349 0.000955412 0)
(29.2067 0.000918397 0)
(29.1804 0.000884306 0)
(29.1561 0.000852449 0)
(29.1336 0.000822353 0)
(29.1126 0.000793707 0)
(29.093 0.000766299 0)
(29.0749 0.000739976 0)
(29.058 0.000714418 0)
(29.0422 0.000689301 0)
(29.0276 0.000664556 0)
(29.014 0.000639327 0)
(29.0014 0.000612559 0)
(28.9898 0.000584003 0)
(28.9791 0.000552338 0)
(28.9693 0.000515517 0)
(28.9606 0.00047312 0)
(28.9528 0.000422686 0)
(28.9461 0.000360842 0)
(28.9406 0.000288687 0)
(28.9364 0.000200936 0)
(28.9335 9.09767e-05 0)
(28.9322 -4.12317e-05 0)
(28.9326 -0.000200323 0)
(28.935 -0.000390872 0)
(28.9395 -0.000618127 0)
(28.9465 -0.000893235 0)
(28.9561 -0.00121839 0)
(28.9688 -0.00160257 0)
(28.985 -0.00205453 0)
(29.0048 -0.00258978 0)
(29.029 -0.00321196 0)
(29.0577 -0.00394648 0)
(29.0919 -0.00479413 0)
(29.1315 -0.0057932 0)
(29.178 -0.00695268 0)
(29.2223 -0.00808597 0)
(29.2609 -0.00909439 0)
(29.3018 -0.0101452 0)
(29.3452 -0.0112987 0)
(29.3911 -0.0125544 0)
(29.4395 -0.0138961 0)
(29.4902 -0.0153626 0)
(29.5437 -0.0169141 0)
(29.5992 -0.0186457 0)
(29.6578 -0.0204361 0)
(29.7179 -0.0225183 0)
(29.7821 -0.0245844 0)
(29.8466 -0.027164 0)
(29.9172 -0.0295633 0)
(29.9857 -0.0328932 0)
(30.0646 -0.0357856 0)
(30.1363 -0.0402409 0)
(30.2277 -0.0442737 0)
(30.3002 -0.0502143 0)
(30.4136 -0.0579263 0)
(30.4814 -0.0656154 0)
(30.6411 -0.086016 0)
(30.687 -0.103144 0)
(30.9499 -0.164231 0)
(30.8963 -0.295682 0)
(44.4186 0.150589 0)
(40.0227 0.0688568 0)
(37.1464 0.0350339 0)
(35.4141 0.0214584 0)
(34.2996 0.014709 0)
(33.5296 0.0108624 0)
(32.9649 0.00851437 0)
(32.5288 0.00694861 0)
(32.1835 0.0057941 0)
(31.9041 0.00494498 0)
(31.6726 0.0043068 0)
(31.4779 0.00379586 0)
(31.3123 0.00338265 0)
(31.1696 0.0030553 0)
(31.0452 0.00278682 0)
(30.9359 0.00255384 0)
(30.8394 0.00235097 0)
(30.7539 0.002177 0)
(30.6774 0.0020297 0)
(30.6087 0.00190361 0)
(30.5466 0.00179214 0)
(30.4902 0.00169377 0)
(30.4391 0.00160126 0)
(30.3924 0.0015139 0)
(30.3499 0.00143785 0)
(30.3109 0.00137031 0)
(30.2751 0.00131009 0)
(30.2421 0.00125607 0)
(30.2116 0.00120708 0)
(30.1833 0.001162 0)
(30.1571 0.00111994 0)
(30.1328 0.00108027 0)
(30.1102 0.00104258 0)
(30.0892 0.00100657 0)
(30.0696 0.000972031 0)
(30.0514 0.000938573 0)
(30.0345 0.00090576 0)
(30.0187 0.00087344 0)
(30.004 0.000840589 0)
(29.9904 0.000805913 0)
(29.9779 0.000768963 0)
(29.9663 0.00072814 0)
(29.9557 0.00068095 0)
(29.9462 0.000626641 0)
(29.9377 0.000562251 0)
(29.9303 0.000483611 0)
(29.9242 0.000391593 0)
(29.9193 0.000279967 0)
(29.9158 0.000140795 0)
(29.914 -2.6618e-05 0)
(29.9139 -0.000228106 0)
(29.9158 -0.00046958 0)
(29.9198 -0.000757403 0)
(29.9264 -0.00110509 0)
(29.9356 -0.00151621 0)
(29.948 -0.00200225 0)
(29.9638 -0.00257356 0)
(29.9833 -0.0032498 0)
(30.0072 -0.00403573 0)
(30.0355 -0.00496318 0)
(30.0694 -0.00603336 0)
(30.1087 -0.00729374 0)
(30.1549 -0.00875525 0)
(30.199 -0.010183 0)
(30.2374 -0.0114544 0)
(30.2781 -0.01278 0)
(30.3213 -0.0142309 0)
(30.3669 -0.0158103 0)
(30.4151 -0.0174969 0)
(30.4656 -0.0193394 0)
(30.5188 -0.0212879 0)
(30.574 -0.0234591 0)
(30.6323 -0.0257056 0)
(30.6921 -0.0283088 0)
(30.7558 -0.030899 0)
(30.82 -0.0341118 0)
(30.8899 -0.0371164 0)
(30.9581 -0.0412473 0)
(31.0361 -0.0448463 0)
(31.1072 -0.0503859 0)
(31.1973 -0.055247 0)
(31.2691 -0.0628615 0)
(31.3805 -0.0714576 0)
(31.447 -0.0824402 0)
(31.6015 -0.103147 0)
(31.6464 -0.127995 0)
(31.8865 -0.185621 0)
(31.8383 -0.309596 0)
(45.2574 0.163392 0)
(41.6279 0.0846435 0)
(38.7556 0.0460791 0)
(36.9071 0.028677 0)
(35.6942 0.0196949 0)
(34.8507 0.0145348 0)
(34.2304 0.0113743 0)
(33.7513 0.00926557 0)
(33.3719 0.0077163 0)
(33.065 0.0065762 0)
(32.8108 0.00571864 0)
(32.5972 0.00503416 0)
(32.4156 0.00448199 0)
(32.2592 0.00404346 0)
(32.1231 0.0036835 0)
(32.0036 0.00337265 0)
(31.8982 0.00310269 0)
(31.8048 0.00287133 0)
(31.7213 0.00267524 0)
(31.6463 0.00250728 0)
(31.5786 0.00235897 0)
(31.5173 0.00222761 0)
(31.4615 0.0021052 0)
(31.4108 0.00199066 0)
(31.3645 0.00189021 0)
(31.322 0.00180092 0)
(31.2831 0.00172126 0)
(31.2472 0.00164979 0)
(31.214 0.00158498 0)
(31.1833 0.00152541 0)
(31.1549 0.0014699 0)
(31.1285 0.00141764 0)
(31.1039 0.00136809 0)
(31.0811 0.00132083 0)
(31.0598 0.00127559 0)
(31.04 0.00123187 0)
(31.0216 0.0011891 0)
(31.0044 0.001147 0)
(30.9885 0.00110436 0)
(30.9737 0.0010596 0)
(30.96 0.00101199 0)
(30.9473 0.000959624 0)
(30.9357 0.000899477 0)
(30.9252 0.000830343 0)
(30.9158 0.000748699 0)
(30.9076 0.000649448 0)
(30.9007 0.000532984 0)
(30.895 0.000392109 0)
(30.8909 0.000217411 0)
(30.8883 7.18084e-06 0)
(30.8876 -0.000245797 0)
(30.8888 -0.000549116 0)
(30.8923 -0.000910473 0)