/*--------------------------------*- C++ -*----------------------------------*\
| =========                 |                                                 |
| \\      /  F ield         | OpenFOAM: The Open Source CFD Toolbox           |
|  \\    /   O peration     | Version:  v2006                                 |
|   \\  /    A nd           | Website:  www.openfoam.com                      |
|    \\/     M anipulation  |                                                 |
\*---------------------------------------------------------------------------*/
FoamFile
{
    version     2.0;
    format      ascii;
    class       volVectorField;
    location    "10000";
    object      U;
}
// * * * * * * * * * * * * * * * * * * * * * * * * * * * * * * * * * * * * * //

dimensions      [0 1 -1 0 0 0 0];


internalField   nonuniform List<vector> 
20540
(
(38.6869 -0.000187054 0)
(51.8286 0.00479268 0)
(38.6992 -0.000604295 0)
(51.8044 0.0141411 0)
(38.7316 -0.00110945 0)
(51.7451 0.0222197 0)
(38.7954 -0.00170501 0)
(51.6417 0.0291165 0)
(38.9058 -0.0024033 0)
(51.4845 0.0354706 0)
(39.082 -0.00321422 0)
(51.2622 0.0416687 0)
(39.3464 -0.00414058 0)
(50.9634 0.0476919 0)
(39.7225 -0.00517582 0)
(50.5773 0.0533531 0)
(40.2309 -0.00630041 0)
(50.0963 0.0584039 0)
(40.8858 -0.00747703 0)
(49.5182 0.0625424 0)
(41.6915 -0.00864646 0)
(48.8499 0.0654263 0)
(42.6387 -0.00972447 0)
(48.1109 0.066733 0)
(43.6923 -0.0105866 0)
(47.3374 0.0662638 0)
(44.764 -0.0110117 0)
(46.5823 0.0640641 0)
(45.6806 -0.0105842 0)
(45.9186 0.0603251 0)
(46.1817 -0.00941229 0)
(45.5723 0.0559657 0)
(46.0743 -0.00960734 0)
(45.9148 0.0557576 0)
(45.9594 -0.00972939 0)
(46.0345 0.055537 0)
(46.0014 -0.00932757 0)
(45.9696 0.0543611 0)
(46.0038 -0.00912862 0)
(45.9735 0.0532782 0)
(46.0011 -0.00873216 0)
(45.9775 0.0517657 0)
(46.0015 -0.00837725 0)
(45.9786 0.0500639 0)
(46.0017 -0.00790069 0)
(45.9803 0.0479905 0)
(46.0018 -0.00736286 0)
(45.9824 0.0455264 0)
(46.0019 -0.00674114 0)
(45.9848 0.042599 0)
(46.0021 -0.00603177 0)
(45.9874 0.0391259 0)
(46.0022 -0.00523544 0)
(45.9903 0.0350158 0)
(46.0024 -0.00435256 0)
(45.9935 0.0301588 0)
(46.0025 -0.00339461 0)
(45.9966 0.0244244 0)
(46.0027 -0.00236058 0)
(45.9995 0.0176271 0)
(46.0028 -0.00135228 0)
(46.0016 0.0104428 0)
(46.0028 -0.00043904 0)
(46.0026 0.0034934 0)
(46.0028 0.000448614 0)
(46.0026 -0.00342315 0)
(46.0028 0.00136279 0)
(46.0016 -0.0103741 0)
(46.0027 0.00235385 0)
(45.9996 -0.0174477 0)
(46.0025 0.00335626 0)
(45.9968 -0.0240601 0)
(46.0024 0.00428747 0)
(45.9938 -0.0296729 0)
(46.0022 0.00514759 0)
(45.9907 -0.0344534 0)
(46.0021 0.00592755 0)
(45.9879 -0.0385226 0)
(46.002 0.00662592 0)
(45.9853 -0.0419812 0)
(46.0018 0.00724154 0)
(45.983 -0.0449147 0)
(46.0017 0.00778231 0)
(45.9809 -0.0474007 0)
(46.0016 0.00824552 0)
(45.9791 -0.049497 0)
(46.0014 0.00865167 0)
(45.9777 -0.0512661 0)
(46.0021 0.00895147 0)
(45.9758 -0.0527299 0)
(46.0043 0.00933757 0)
(45.9702 -0.0540678 0)
(45.9824 0.00942516 0)
(45.991 -0.0548647 0)
(45.9779 0.00991443 0)
(46.0428 -0.056135 0)
(46.1777 0.00925879 0)
(45.6937 -0.0551767 0)
(46.0011 0.0100097 0)
(45.6734 -0.0579527 0)
(45.299 0.0108899 0)
(46.2009 -0.0621359 0)
(44.3265 0.0108547 0)
(46.8879 -0.0651117 0)
(43.2853 0.0102389 0)
(47.6305 -0.0665902 0)
(42.3 0.00931916 0)
(48.3702 -0.0664018 0)
(41.4292 0.00824446 0)
(49.0642 -0.0645968 0)
(40.695 0.00711061 0)
(49.6849 -0.0614075 0)
(40.1016 0.00598661 0)
(50.2184 -0.0571394 0)
(39.6425 0.00492075 0)
(50.661 -0.0520945 0)
(39.3033 0.00394275 0)
(51.0162 -0.0465315 0)
(39.0644 0.00306769 0)
(51.2915 -0.0406602 0)
(38.9046 0.00230001 0)
(51.4969 -0.0346328 0)
(38.8039 0.00163651 0)
(51.6427 -0.028437 0)
(38.7452 0.00106812 0)
(51.739 -0.0216867 0)
(38.7151 0.000583777 0)
(51.7943 -0.0137897 0)
(38.7036 0.000181203 0)
(51.817 -0.00467438 0)
(5.51748 0.00574532 0)
(4.1976 1.37739e-05 0)
(3.86121 3.83992e-06 0)
(3.6613 2.71078e-06 0)
(3.53007 1.8884e-06 0)
(3.43727 1.43979e-06 0)
(3.36779 1.15668e-06 0)
(3.31271 9.55188e-07 0)
(3.26849 7.98389e-07 0)
(3.23226 6.87898e-07 0)
(3.20175 6.05188e-07 0)
(3.17577 5.3589e-07 0)
(3.1535 4.79906e-07 0)
(3.13412 4.36281e-07 0)
(3.11705 3.99896e-07 0)
(3.10194 3.67512e-07 0)
(3.08854 3.38163e-07 0)
(3.0766 4.72515e-07 0)
(3.066 -2.08789e-05 0)
(3.01802 -2.26577e-05 0)
(3.00902 -5.21972e-07 0)
(3.00121 -1.07765e-07 0)
(2.99416 -5.91745e-08 0)
(2.98773 -5.25219e-08 0)
(2.98185 -4.76704e-08 0)
(2.97646 -4.34128e-08 0)
(2.97149 -3.96542e-08 0)
(2.96691 -3.63428e-08 0)
(2.96267 -3.34436e-08 0)
(2.95874 -3.0914e-08 0)
(2.95508 -2.86946e-08 0)
(2.95169 -2.67353e-08 0)
(2.94854 -2.49958e-08 0)
(2.94561 -2.34547e-08 0)
(2.94288 -2.21108e-08 0)
(2.94035 -2.09677e-08 0)
(2.938 -2.13308e-08 0)
(2.93581 4.3375e-08 0)
(2.93384 1.16397e-07 0)
(2.93203 -1.32398e-08 0)
(2.93028 -8.16903e-08 0)
(2.92873 6.85924e-08 0)
(2.92739 -8.3518e-09 0)
(2.92614 -9.37957e-08 0)
(2.92509 5.87461e-08 0)
(2.92428 7.87369e-08 0)
(2.92366 -1.15734e-06 0)
(2.92288 5.24756e-05 0)
(2.95661 5.47054e-05 0)
(2.95774 2.35556e-06 0)
(2.95809 -5.7536e-09 0)
(2.95903 3.12553e-08 0)
(2.96036 -3.1013e-07 0)
(2.96228 -2.57574e-07 0)
(2.96484 -4.55345e-07 0)
(2.96787 -9.5285e-07 0)
(2.97164 -1.17459e-06 0)
(2.97623 -1.48614e-06 0)
(2.98172 -1.84507e-06 0)
(2.9882 -2.04682e-06 0)
(2.99592 -2.55456e-06 0)
(3.0048 -3.01923e-06 0)
(3.01518 -3.67098e-06 0)
(3.02504 -5.04185e-06 0)
(3.03359 -5.59842e-06 0)
(3.04274 -6.17226e-06 0)
(3.05252 -6.9761e-06 0)
(3.06291 -7.85572e-06 0)
(3.07392 -8.87976e-06 0)
(3.08554 -9.98443e-06 0)
(3.09781 -1.13149e-05 0)
(3.11068 -1.26537e-05 0)
(3.12432 -1.44709e-05 0)
(3.13849 -1.60116e-05 0)
(3.15369 -1.876e-05 0)
(3.1692 -2.02341e-05 0)
(3.18634 -2.50827e-05 0)
(3.20322 -2.54467e-05 0)
(3.22309 -3.56439e-05 0)
(3.24134 -3.16411e-05 0)
(3.26552 -5.63223e-05 0)
(3.28575 -3.92178e-05 0)
(3.31667 -0.000103332 0)
(3.34359 -6.40411e-05 0)
(3.38216 -0.000239462 0)
(3.45375 -0.000282833 0)
(3.47746 -0.00161695 0)
(3.50077 -0.0271645 0)
(16.3951 0.0173025 0)
(13.0523 0.000814025 0)
(12.0559 0.00028526 0)
(11.4635 0.000183711 0)
(11.0718 0.000128863 0)
(10.7937 9.68064e-05 0)
(10.585 7.70515e-05 0)
(10.4192 6.36697e-05 0)
(10.2858 5.34737e-05 0)
(10.1764 4.6024e-05 0)
(10.0841 4.04047e-05 0)
(10.0055 3.57895e-05 0)
(9.93797 3.20523e-05 0)
(9.87921 2.90986e-05 0)
(9.82742 2.66486e-05 0)
(9.78155 2.44896e-05 0)
(9.74086 2.25819e-05 0)
(9.70456 2.13614e-05 0)
(9.67239 -3.52473e-05 0)
(9.57528 -4.10263e-05 0)
(9.54726 1.57747e-05 0)
(9.52292 1.59572e-05 0)
(9.50093 1.51772e-05 0)
(9.48087 1.43888e-05 0)
(9.46253 1.36777e-05 0)
(9.44571 1.30466e-05 0)
(9.43022 1.24861e-05 0)
(9.41593 1.19845e-05 0)
(9.40269 1.15285e-05 0)
(9.39041 1.11061e-05 0)
(9.37901 1.07084e-05 0)
(9.36842 1.033e-05 0)
(9.35858 9.96741e-06 0)
(9.34943 9.61881e-06 0)
(9.34092 9.28219e-06 0)
(9.33302 8.95468e-06 0)
(9.32567 8.62915e-06 0)
(9.31886 8.46915e-06 0)
(9.31264 8.31012e-06 0)
(9.30694 7.62326e-06 0)
(9.3015 7.08423e-06 0)
(9.29663 7.02122e-06 0)
(9.29237 6.30998e-06 0)
(9.28844 5.53623e-06 0)
(9.2851 5.1976e-06 0)
(9.28246 4.36835e-06 0)
(9.2804 2.58784e-07 0)
(9.2778 0.000138532 0)
(9.33835 0.000142162 0)
(9.34145 5.25867e-06 0)
(9.34238 -3.61803e-06 0)
(9.34482 -6.06724e-06 0)
(9.34848 -1.05551e-05 0)
(9.35392 -1.46366e-05 0)
(9.361 -1.94274e-05 0)
(9.36962 -2.59369e-05 0)
(9.38033 -3.28927e-05 0)
(9.39341 -4.12021e-05 0)
(9.40912 -5.11323e-05 0)
(9.42766 -6.23537e-05 0)
(9.44961 -7.58708e-05 0)
(9.47499 -9.14968e-05 0)
(9.50448 -0.000110246 0)
(9.53231 -0.000130403 0)
(9.55669 -0.000146294 0)
(9.58275 -0.000163388 0)
(9.61053 -0.000182904 0)
(9.64002 -0.000203982 0)
(9.67119 -0.000226949 0)
(9.70405 -0.000252031 0)
(9.7387 -0.000279423 0)
(9.77497 -0.000309534 0)
(9.81331 -0.000342486 0)
(9.85303 -0.000379096 0)
(9.89552 -0.000419829 0)
(9.93872 -0.00046491 0)
(9.98629 -0.000518132 0)
(10.0329 -0.000574249 0)
(10.0875 -0.000652115 0)
(10.1373 -0.000719206 0)
(10.2026 -0.000865453 0)
(10.257 -0.000921789 0)
(10.3377 -0.00129523 0)
(10.4084 -0.00125398 0)
(10.5008 -0.0026521 0)
(10.6776 -0.00247547 0)
(10.6845 -0.00468966 0)
(11.4775 -0.157172 0)
(24.846 0.0288947 0)
(20.703 0.00269885 0)
(19.3949 0.00100934 0)
(18.6117 0.00065541 0)
(18.0862 0.00046557 0)
(17.7088 0.000352595 0)
(17.4232 0.000282275 0)
(17.1949 0.000234346 0)
(17.0102 0.000197593 0)
(16.858 0.000170557 0)
(16.7291 0.00015008 0)
(16.619 0.00013321 0)
(16.5242 0.000119502 0)
(16.4416 0.000108638 0)
(16.3685 9.96123e-05 0)
(16.3038 9.16445e-05 0)
(16.2462 8.45927e-05 0)
(16.1948 7.91874e-05 0)
(16.1488 -5.36448e-06 0)
(16.1335 -1.52066e-05 0)
(16.0948 6.35392e-05 0)
(16.0598 6.19406e-05 0)
(16.0279 5.87905e-05 0)
(15.9988 5.57493e-05 0)
(15.9721 5.30087e-05 0)
(15.9476 5.05744e-05 0)
(15.925 4.84115e-05 0)
(15.9041 4.64753e-05 0)
(15.8848 4.4715e-05 0)
(15.8668 4.30846e-05 0)
(15.8501 4.15499e-05 0)
(15.8346 4.00898e-05 0)
(15.8202 3.86913e-05 0)
(15.8067 3.7347e-05 0)
(15.7942 3.60498e-05 0)
(15.7826 3.47891e-05 0)
(15.7718 3.3545e-05 0)
(15.7617 3.25568e-05 0)
(15.7524 3.15243e-05 0)
(15.7437 2.96596e-05 0)
(15.7358 2.80049e-05 0)
(15.7285 2.69008e-05 0)
(15.7219 2.46639e-05 0)
(15.7161 2.21994e-05 0)
(15.7111 2.00458e-05 0)
(15.7068 1.68372e-05 0)
(15.7036 8.16916e-06 0)
(15.7007 0.000211939 0)
(15.6784 0.000216676 0)
(15.679 7.30387e-06 0)
(15.6808 -1.31573e-05 0)
(15.6838 -2.26231e-05 0)
(15.6889 -3.66434e-05 0)
(15.6961 -5.14321e-05 0)
(15.7055 -6.92017e-05 0)
(15.7175 -9.1426e-05 0)
(15.7324 -0.000116264 0)
(15.7505 -0.000145616 0)
(15.7724 -0.000180496 0)
(15.7982 -0.000221287 0)
(15.8286 -0.00026893 0)
(15.8639 -0.000324428 0)
(15.9054 -0.000390717 0)
(15.9453 -0.000457913 0)
(15.9797 -0.000513281 0)
(16.016 -0.000572302 0)
(16.0546 -0.00063908 0)
(16.0955 -0.000711322 0)
(16.1386 -0.000789449 0)
(16.184 -0.000874584 0)
(16.2318 -0.000966491 0)
(16.2817 -0.00106795 0)
(16.3343 -0.00117641 0)
(16.3887 -0.0012993 0)
(16.4467 -0.00142931 0)
(16.5055 -0.00158151 0)
(16.57 -0.00174254 0)
(16.6331 -0.0019373 0)
(16.7064 -0.0021537 0)
(16.7733 -0.00240235 0)
(16.8597 -0.00278056 0)
(16.9321 -0.00302803 0)
(17.036 -0.00400605 0)
(17.1292 -0.0038636 0)
(17.24 -0.00785889 0)
(17.4646 -0.00528951 0)
(17.434 -0.0231577 0)
(18.6055 -0.196516 0)
(29.8898 0.0393226 0)
(25.2698 0.00521071 0)
(23.777 0.00202264 0)
(22.9177 0.00130185 0)
(22.3492 0.000925853 0)
(21.9445 0.000702325 0)
(21.64 0.00056313 0)
(21.3976 0.000468257 0)
(21.2022 0.000395481 0)
(21.0414 0.000341784 0)
(20.9057 0.000301091 0)
(20.7899 0.000267574 0)
(20.6903 0.000240279 0)
(20.6035 0.000218608 0)
(20.5269 0.000200607 0)
(20.459 0.00018472 0)
(20.3987 0.000170647 0)
(20.3449 0.000158851 0)
(20.2965 0.000123282 0)
(20.289 0.000113682 0)
(20.2494 0.000131775 0)
(20.2131 0.000125368 0)
(20.1798 0.000118741 0)
(20.1495 0.000112629 0)
(20.1217 0.000107122 0)
(20.0962 0.000102225 0)
(20.0727 9.78696e-05 0)
(20.051 9.39698e-05 0)
(20.0309 9.04249e-05 0)
(20.0122 8.71427e-05 0)
(19.9948 8.40543e-05 0)
(19.9787 8.11161e-05 0)
(19.9637 7.83013e-05 0)
(19.9497 7.55943e-05 0)
(19.9367 7.29804e-05 0)
(19.9245 7.04381e-05 0)
(19.9132 6.79375e-05 0)
(19.9028 6.54987e-05 0)
(19.893 6.29447e-05 0)
(19.884 6.00754e-05 0)
(19.8757 5.7129e-05 0)
(19.8681 5.38971e-05 0)
(19.8613 4.99213e-05 0)
(19.8552 4.54327e-05 0)
(19.8499 4.00809e-05 0)
(19.8455 3.34604e-05 0)
(19.842 2.38189e-05 0)
(19.8396 7.78421e-05 0)
(19.8072 7.23394e-05 0)
(19.8066 -4.14375e-06 0)
(19.8084 -2.66712e-05 0)
(19.8117 -4.75144e-05 0)
(19.8171 -7.40335e-05 0)
(19.8245 -0.000104122 0)
(19.8342 -0.000139481 0)
(19.8468 -0.000182273 0)
(19.8624 -0.00023215 0)
(19.8814 -0.000291075 0)
(19.9043 -0.000360124 0)
(19.9313 -0.000441467 0)
(19.9632 -0.000535978 0)
(20.0001 -0.000646608 0)
(20.0437 -0.000776662 0)
(20.0858 -0.00090503 0)
(20.1219 -0.0010158 0)
(20.16 -0.00113426 0)
(20.2004 -0.00126559 0)
(20.2432 -0.00140761 0)
(20.2883 -0.00156056 0)
(20.3358 -0.00172725 0)
(20.3858 -0.00190609 0)
(20.4379 -0.00210424 0)
(20.493 -0.00231357 0)
(20.5497 -0.00255344 0)
(20.6104 -0.00280089 0)
(20.6717 -0.00309926 0)
(20.7391 -0.00339823 0)
(20.8048 -0.00378462 0)
(20.8813 -0.00417138 0)
(20.9509 -0.00467447 0)
(21.0403 -0.00532964 0)
(21.1163 -0.0058472 0)
(21.2214 -0.0075821 0)
(21.3221 -0.00722918 0)
(21.4246 -0.0146556 0)
(21.6694 -0.00786659 0)
(21.6071 -0.0504057 0)
(22.7016 -0.20235 0)
(33.1825 0.0502842 0)
(28.15 0.00828129 0)
(26.4521 0.00327329 0)
(25.5068 0.00207975 0)
(24.8911 0.00147352 0)
(24.4572 0.00111557 0)
(24.1329 0.000893294 0)
(23.8764 0.000742177 0)
(23.6704 0.000626613 0)
(23.5016 0.000541285 0)
(23.3595 0.000476688 0)
(23.2385 0.000423607 0)
(23.1347 0.000380364 0)
(23.0443 0.000345998 0)
(22.9648 0.000317489 0)
(22.8943 0.000292372 0)
(22.8318 0.000270132 0)
(22.776 0.000250997 0)
(22.726 0.000233456 0)
(22.6965 0.00022016 0)
(22.6555 0.00020919 0)
(22.6181 0.000197806 0)
(22.5839 0.000187279 0)
(22.5527 0.000177656 0)
(22.5241 0.000168982 0)
(22.4979 0.000161262 0)
(22.4738 0.000154395 0)
(22.4515 0.000148245 0)
(22.4308 0.000142657 0)
(22.4116 0.000137487 0)
(22.3938 0.000132626 0)
(22.3772 0.000128004 0)
(22.3618 0.000123577 0)
(22.3475 0.000119321 0)
(22.3341 0.00011521 0)
(22.3217 0.000111211 0)
(22.3101 0.000107282 0)
(22.2994 0.000103311 0)
(22.2894 9.91695e-05 0)
(22.2802 9.49307e-05 0)
(22.2717 9.03743e-05 0)
(22.264 8.5017e-05 0)
(22.257 7.89686e-05 0)
(22.2508 7.20034e-05 0)
(22.2454 6.33221e-05 0)
(22.2408 5.28986e-05 0)
(22.2373 4.09136e-05 0)
(22.2349 2.7741e-05 0)
(22.2202 9.65353e-06 0)
(22.2199 -1.45433e-05 0)
(22.2216 -4.22974e-05 0)
(22.225 -7.55908e-05 0)
(22.2305 -0.000116284 0)
(22.238 -0.00016342 0)
(22.2479 -0.000219034 0)
(22.2607 -0.000285861 0)
(22.2766 -0.000364262 0)
(22.296 -0.000456975 0)
(22.3193 -0.000565214 0)
(22.3468 -0.000692923 0)
(22.3794 -0.000840969 0)
(22.417 -0.0010149 0)
(22.4613 -0.00121848 0)
(22.5038 -0.00141792 0)
(22.5406 -0.00159223 0)
(22.5793 -0.00177772 0)
(22.6205 -0.00198277 0)
(22.6641 -0.00220479 0)
(22.7101 -0.00244337 0)
(22.7584 -0.00270359 0)
(22.8094 -0.00298176 0)
(22.8625 -0.00329089 0)
(22.9186 -0.00361525 0)
(22.9764 -0.00398955 0)
(23.0382 -0.00437022 0)
(23.1006 -0.00483709 0)
(23.1693 -0.00529111 0)
(23.236 -0.00589873 0)
(23.3137 -0.00647515 0)
(23.3846 -0.00727161 0)
(23.475 -0.00822964 0)
(23.5525 -0.00906217 0)
(23.6574 -0.0116105 0)
(23.76 -0.0110889 0)
(23.8616 -0.0219076 0)
(24.0931 -0.0123856 0)
(24.0818 -0.0718918 0)
(24.8458 -0.204049 0)
(35.699 0.0625923 0)
(30.3568 0.0123773 0)
(28.4474 0.00497355 0)
(27.4054 0.00311164 0)
(26.7343 0.0021898 0)
(26.2649 0.00165076 0)
(25.916 0.00131762 0)
(25.6415 0.00109207 0)
(25.4216 0.000920517 0)
(25.242 0.000793916 0)
(25.0912 0.000698273 0)
(24.963 0.000619992 0)
(24.8532 0.000556257 0)
(24.7578 0.000505585 0)
(24.6739 0.000463635 0)
(24.5997 0.000426786 0)
(24.5338 0.000394194 0)
(24.4752 0.000366027 0)
(24.4226 0.000344078 0)
(24.3804 0.000324476 0)
(24.3372 0.000304648 0)
(24.298 0.000287784 0)
(24.2622 0.000272461 0)
(24.2295 0.00025844 0)
(24.1996 0.000245796 0)
(24.1721 0.000234536 0)
(24.1469 0.000224516 0)
(24.1235 0.000215545 0)
(24.1019 0.000207399 0)
(24.0819 0.000199871 0)
(24.0633 0.0001928 0)
(24.046 0.000186082 0)
(24.0299 0.000179654 0)
(24.0149 0.000173474 0)
(24.001 0.000167508 0)
(23.988 0.000161704 0)
(23.9759 0.000156004 0)
(23.9647 0.000150227 0)
(23.9543 0.000144215 0)
(23.9447 0.000138108 0)
(23.9358 0.000131498 0)
(23.9277 0.00012372 0)
(23.9204 0.000115017 0)
(23.9139 0.00010493 0)
(23.9083 9.23551e-05 0)
(23.9036 7.73077e-05 0)
(23.8998 6.04486e-05 0)
(23.8972 3.30391e-05 0)
(23.8914 4.62511e-06 0)
(23.8912 -2.246e-05 0)
(23.8928 -6.09705e-05 0)
(23.8963 -0.000109206 0)
(23.9017 -0.00016724 0)
(23.9093 -0.000235142 0)
(23.9195 -0.00031573 0)
(23.9325 -0.000412248 0)
(23.9488 -0.000525498 0)
(23.9685 -0.0006595 0)
(23.9923 -0.000815817 0)
(24.0205 -0.00100038 0)
(24.0538 -0.00121398 0)
(24.0923 -0.00146564 0)
(24.1375 -0.0017599 0)
(24.1807 -0.00204748 0)
(24.2182 -0.00229982 0)
(24.2578 -0.0025668 0)
(24.2999 -0.00286221 0)
(24.3444 -0.0031826 0)
(24.3914 -0.00352637 0)
(24.4408 -0.00390175 0)
(24.4929 -0.00430192 0)
(24.5471 -0.00474778 0)
(24.6044 -0.00521327 0)
(24.6633 -0.00575331 0)
(24.7264 -0.00629707 0)
(24.7899 -0.00697184 0)
(24.8599 -0.00761492 0)
(24.9278 -0.00849495 0)
(25.0069 -0.00930205 0)
(25.0789 -0.0104582 0)
(25.1703 -0.0117769 0)
(25.2488 -0.0130068 0)
(25.3551 -0.0164787 0)
(25.4551 -0.0159202 0)
(25.5661 -0.0301768 0)
(25.7598 -0.0192996 0)
(25.8464 -0.0898084 0)
(26.2566 -0.214282 0)
(37.8194 0.076132 0)
(32.2762 0.0177405 0)
(30.1557 0.00728902 0)
(29.0098 0.0044988 0)
(28.2781 0.00314458 0)
(27.7693 0.00236003 0)
(27.3927 0.00187728 0)
(27.0978 0.00155181 0)
(26.8622 0.00130565 0)
(26.6701 0.00112411 0)
(26.5093 0.000987251 0)
(26.3729 0.000875694 0)
(26.2561 0.000784949 0)
(26.1548 0.000712775 0)
(26.0659 0.000653146 0)
(25.9872 0.000600931 0)
(25.9176 0.000554816 0)
(25.8555 0.000514966 0)
(25.7999 0.000481762 0)
(25.7513 0.000453678 0)
(25.7057 0.000427857 0)
(25.6643 0.000404146 0)
(25.6265 0.000382608 0)
(25.592 0.000362874 0)
(25.5605 0.00034507 0)
(25.5316 0.000329206 0)
(25.505 0.000315085 0)
(25.4804 0.000302443 0)
(25.4577 0.000290971 0)
(25.4366 0.00028038 0)
(25.417 0.000270445 0)
(25.3988 0.000261015 0)
(25.3819 0.000251998 0)
(25.3661 0.000243335 0)
(25.3515 0.000234975 0)
(25.3378 0.000226845 0)
(25.3252 0.000218863 0)
(25.3134 0.000210785 0)
(25.3024 0.000202392 0)
(25.2923 0.000193842 0)
(25.283 0.000184589 0)
(25.2745 0.000173768 0)
(25.2668 0.000161651 0)
(25.2599 0.000147577 0)
(25.2539 0.000130112 0)
(25.2489 0.000109223 0)
(25.2449 8.53804e-05 0)
(25.2421 5.30727e-05 0)
(25.2392 1.38009e-05 0)
(25.239 -2.96106e-05 0)
(25.2405 -8.33093e-05 0)
(25.2439 -0.000150322 0)
(25.2493 -0.000230346 0)
(25.257 -0.000324443 0)
(25.2673 -0.000436477 0)
(25.2805 -0.000570447 0)
(25.297 -0.000727581 0)
(25.3171 -0.000913557 0)
(25.3414 -0.00113036 0)
(25.37 -0.00138644 0)
(25.404 -0.00168249 0)
(25.4433 -0.00203171 0)
(25.4893 -0.00243946 0)
(25.5333 -0.00283781 0)
(25.5715 -0.00318861 0)
(25.6119 -0.00355769 0)
(25.6548 -0.0039661 0)
(25.7002 -0.00440967 0)
(25.7482 -0.00488502 0)
(25.7985 -0.00540449 0)
(25.8515 -0.00595694 0)
(25.9067 -0.00657359 0)
(25.9651 -0.00721483 0)
(26.025 -0.0079614 0)
(26.0892 -0.00870755 0)
(26.1538 -0.00964052 0)
(26.2248 -0.0105174 0)
(26.2937 -0.0117336 0)
(26.3738 -0.0128244 0)
(26.4467 -0.0144236 0)
(26.5391 -0.0161687 0)
(26.6176 -0.0179188 0)
(26.7263 -0.0223778 0)
(26.8203 -0.0221311 0)
(26.9469 -0.0393582 0)
(27.0933 -0.029572 0)
(27.2765 -0.104756 0)
(27.4308 -0.231503 0)
(39.6988 0.0907421 0)
(34.0685 0.0245698 0)
(31.7409 0.0103901 0)
(30.4835 0.00634559 0)
(29.6854 0.0044077 0)
(29.133 0.00329404 0)
(28.7258 0.00261133 0)
(28.4081 0.00215279 0)
(28.1549 0.00180793 0)
(27.9489 0.0015538 0)
(27.7769 0.00136254 0)
(27.6313 0.00120728 0)
(27.5067 0.00108113 0)
(27.3989 0.000980752 0)
(27.3043 0.00089798 0)
(27.2208 0.000825728 0)
(27.1468 0.000762022 0)
(27.081 0.000706999 0)
(27.022 0.000659681 0)
(26.9692 0.000620663 0)
(26.9209 0.000586456 0)
(26.8771 0.000553926 0)
(26.8372 0.000524339 0)
(26.8007 0.000497221 0)
(26.7674 0.000472748 0)
(26.7369 0.00045093 0)
(26.7088 0.000431502 0)
(26.6828 0.00041411 0)
(26.6588 0.000398337 0)
(26.6366 0.000383789 0)
(26.6159 0.000370158 0)
(26.5967 0.000357235 0)
(26.5788 0.000344888 0)
(26.5622 0.000333035 0)
(26.5468 0.000321602 0)
(26.5324 0.00031049 0)
(26.519 0.000299584 0)
(26.5065 0.000288571 0)
(26.495 0.000277147 0)
(26.4843 0.000265477 0)
(26.4745 0.000252868 0)
(26.4655 0.000238211 0)
(26.4573 0.000221772 0)
(26.45 0.000202676 0)
(26.4437 0.000179093 0)
(26.4383 0.00015089 0)
(26.434 0.000118179 0)
(26.4309 7.84285e-05 0)
(26.4287 2.61676e-05 0)
(26.4284 -3.62985e-05 0)
(26.4297 -0.000109231 0)
(26.433 -0.000199612 0)
(26.4383 -0.000307153 0)
(26.446 -0.000433931 0)
(26.4563 -0.000585067 0)
(26.4696 -0.000765639 0)
(26.4863 -0.000977384 0)
(26.5066 -0.00122801 0)
(26.5312 -0.00152 0)
(26.5603 -0.00186493 0)
(26.5948 -0.00226339 0)
(26.6347 -0.00273358 0)
(26.6814 -0.00328156 0)
(26.726 -0.00381709 0)
(26.7648 -0.0042904 0)
(26.8059 -0.00478611 0)
(26.8494 -0.00533402 0)
(26.8955 -0.00592976 0)
(26.9442 -0.00656751 0)
(26.9952 -0.00726477 0)
(27.049 -0.00800482 0)
(27.1049 -0.00883168 0)
(27.1641 -0.00968897 0)
(27.2248 -0.0106889 0)
(27.2898 -0.0116833 0)
(27.3551 -0.0129314 0)
(27.4269 -0.0140944 0)
(27.4965 -0.0157182 0)
(27.5772 -0.0171535 0)
(27.6506 -0.0192924 0)
(27.7438 -0.0215261 0)
(27.8215 -0.0239687 0)
(27.9332 -0.0293923 0)
(28.0193 -0.0300468 0)
(28.1624 -0.0493298 0)
(28.2653 -0.0435744 0)
(28.516 -0.118063 0)
(28.5294 -0.250621 0)
(41.3986 0.106233 0)
(35.8075 0.0330833 0)
(33.2819 0.0144944 0)
(31.9046 0.00879163 0)
(31.0332 0.00607308 0)
(30.4321 0.0045208 0)
(29.9903 0.00357193 0)
(29.647 0.00293676 0)
(29.3739 0.00246167 0)
(29.1523 0.00211183 0)
(28.9676 0.00184891 0)
(28.8114 0.00163633 0)
(28.6781 0.00146384 0)
(28.5629 0.00132655 0)
(28.4619 0.00121352 0)
(28.3729 0.00111517 0)
(28.2941 0.00102862 0)
(28.2241 0.000953908 0)
(28.1614 0.000889284 0)
(28.1048 0.000836124 0)
(28.0536 0.000790001 0)
(28.007 0.000746059 0)
(27.9647 0.000706071 0)
(27.926 0.000669434 0)
(27.8907 0.000636367 0)
(27.8583 0.000606875 0)
(27.8286 0.000580605 0)
(27.8011 0.000557085 0)
(27.7757 0.000535766 0)
(27.7521 0.000516122 0)
(27.7302 0.000497736 0)
(27.7099 0.000480327 0)
(27.691 0.000463712 0)
(27.6734 0.000447774 0)
(27.6571 0.000432414 0)
(27.6418 0.000417494 0)
(27.6277 0.000402864 0)
(27.6145 0.000388123 0)
(27.6023 0.000372863 0)
(27.591 0.00035724 0)
(27.5805 0.000340398 0)
(27.571 0.00032094 0)
(27.5623 0.000299082 0)
(27.5545 0.000273714 0)
(27.5477 0.000242543 0)
(27.542 0.000205269 0)
(27.5373 0.000161592 0)
(27.5339 0.000110325 0)
(27.5317 4.2044e-05 0)
(27.5311 -4.16741e-05 0)
(27.5322 -0.000138293 0)
(27.5352 -0.000257434 0)
(27.5404 -0.000398999 0)
(27.548 -0.000566145 0)
(27.5583 -0.000765416 0)
(27.5716 -0.00100335 0)
(27.5883 -0.00128233 0)
(27.6088 -0.00161252 0)
(27.6336 -0.00199698 0)
(27.6629 -0.00245115 0)
(27.6977 -0.00297553 0)
(27.738 -0.0035942 0)
(27.7852 -0.00431397 0)
(27.8302 -0.00501763 0)
(27.8694 -0.00564143 0)
(27.9109 -0.00629273 0)
(27.9549 -0.00701121 0)
(28.0014 -0.007793 0)
(28.0506 -0.00862919 0)
(28.1021 -0.00954358 0)
(28.1564 -0.0105125 0)
(28.2129 -0.0115954 0)
(28.2725 -0.0127159 0)
(28.3337 -0.0140234 0)
(28.3991 -0.0153197 0)
(28.4649 -0.0169482 0)
(28.5371 -0.018459 0)
(28.6071 -0.0205719 0)
(28.6881 -0.0224215 0)
(28.7617 -0.0252146 0)
(28.8554 -0.0279967 0)
(28.9318 -0.0313573 0)
(29.046 -0.0376584 0)
(29.1244 -0.0399562 0)
(29.2804 -0.0603069 0)
(29.3515 -0.061019 0)
(29.6335 -0.131901 0)
(29.5892 -0.268131 0)
(42.9326 0.122265 0)
(37.5273 0.0434958 0)
(34.8221 0.0198787 0)
(33.317 0.0120272 0)
(32.3645 0.00827115 0)
(31.7086 0.00613551 0)
(31.2276 0.00483244 0)
(30.8548 0.00396252 0)
(30.559 0.00331528 0)
(30.3193 0.00283895 0)
(30.12 0.00248132 0)
(29.9518 0.00219331 0)
(29.8084 0.00195997 0)
(29.6846 0.00177417 0)
(29.5763 0.00162141 0)
(29.481 0.00148894 0)
(29.3966 0.00137261 0)
(29.3217 0.00127225 0)
(29.2547 0.0011857 0)
(29.1943 0.00111411 0)
(29.1396 0.00105186 0)
(29.09 0.000993095 0)
(29.0448 0.000939624 0)
(29.0036 0.000890679 0)
(28.966 0.000846509 0)
(28.9315 0.000807097 0)
(28.8998 0.000771978 0)
(28.8706 0.000740533 0)
(28.8436 0.000712041 0)
(28.8185 0.000685811 0)
(28.7953 0.000661293 0)
(28.7737 0.000638108 0)
(28.7536 0.000616007 0)
(28.7349 0.000594829 0)
(28.7175 0.00057444 0)
(28.7014 0.000554656 0)
(28.6863 0.000535274 0)
(28.6723 0.000515797 0)
(28.6593 0.000495684 0)
(28.6473 0.000475056 0)
(28.6362 0.000452881 0)
(28.626 0.000427423 0)
(28.6167 0.000398793 0)
(28.6084 0.000365618 0)
(28.6011 0.000325068 0)
(28.5948 0.000276593 0)
(28.5897 0.000219418 0)
(28.5858 0.000152598 0)
(28.5834 6.45564e-05 0)
(28.5824 -4.391e-05 0)
(28.5832 -0.00016951 0)
(28.586 -0.000323836 0)
(28.591 -0.000507189 0)
(28.5983 -0.000723923 0)
(28.6085 -0.000982138 0)
(28.6217 -0.00129027 0)
(28.6383 -0.00165156 0)
(28.6587 -0.0020791 0)
(28.6836 -0.00257665 0)
(28.7129 -0.00316432 0)
(28.7479 -0.0038426 0)
(28.7883 -0.00464253 0)
(28.8358 -0.0055718 0)
(28.881 -0.00648035 0)
(28.9204 -0.00728764 0)
(28.9621 -0.00812908 0)
(29.0064 -0.00905506 0)
(29.0531 -0.010063 0)
(29.1025 -0.0111404 0)
(29.1543 -0.0123184 0)
(29.2089 -0.0135652 0)
(29.2655 -0.0149581 0)
(29.3254 -0.0163978 0)
(29.3868 -0.0180761 0)
(29.4524 -0.0197385 0)
(29.5183 -0.021823 0)
(29.5906 -0.0237553 0)
(29.6607 -0.0264518 0)
(29.7416 -0.0287977 0)
(29.815 -0.03238 0)
(29.9087 -0.0357768 0)
(29.9837 -0.0403205 0)
(30.0995 -0.0474082 0)
(30.1718 -0.0520901 0)
(30.3345 -0.0728052 0)
(30.3876 -0.0813836 0)
(30.6712 -0.147883 0)
(30.6131 -0.283595 0)
(44.2848 0.138261 0)
(39.2383 0.0559502 0)
(36.3873 0.0268737 0)
(34.7493 0.0163023 0)
(33.7076 0.011178 0)
(32.99 0.00826821 0)
(32.4642 0.00649372 0)
(32.0577 0.00531123 0)
(31.7357 0.00443576 0)
(31.4749 0.00379167 0)
(31.2586 0.00330834 0)
(31.0764 0.00292054 0)
(30.9212 0.00260688 0)
(30.7873 0.00235697 0)
(30.6704 0.00215175 0)
(30.5677 0.00197436 0)
(30.4768 0.00181899 0)
(30.3962 0.00168504 0)
(30.3241 0.00157 0)
(30.2592 0.00147422 0)
(30.2005 0.00139059 0)
(30.1473 0.00131244 0)
(30.0988 0.00124139 0)
(30.0547 0.00117644 0)
(30.0144 0.00111784 0)
(29.9775 0.00106554 0)
(29.9436 0.00101891 0)
(29.9123 0.000977152 0)
(29.8833 0.000939327 0)
(29.8566 0.000904537 0)
(29.8317 0.00087206 0)
(29.8086 0.000841393 0)
(29.7871 0.000812204 0)
(29.7672 0.000784271 0)
(29.7486 0.000757411 0)
(29.7313 0.000731383 0)
(29.7152 0.000705916 0)
(29.7002 0.000680401 0)
(29.6863 0.00065413 0)
(29.6734 0.000627154 0)
(29.6615 0.000598245 0)
(29.6506 0.000565287 0)
(29.6406 0.000528198 0)
(29.6316 0.000485308 0)
(29.6237 0.00043318 0)
(29.6169 0.000370905 0)
(29.6112 0.000297135 0)
(29.6069 0.000210552 0)
(29.6039 9.82513e-05 0)
(29.6025 -3.9864e-05 0)
(29.6029 -0.000200845 0)
(29.6053 -0.000398057 0)
(29.6099 -0.000632488 0)
(29.617 -0.000909879 0)
(29.6269 -0.00124001 0)
(29.6398 -0.00163371 0)
(29.6563 -0.00209533 0)
(29.6765 -0.00264146 0)
(29.7012 -0.00327678 0)
(29.7305 -0.00402692 0)
(29.7653 -0.00489253 0)
(29.8057 -0.00591279 0)
(29.8531 -0.00709665 0)
(29.8983 -0.00825381 0)
(29.9377 -0.00928361 0)
(29.9795 -0.0103564 0)
(30.0237 -0.0115339 0)
(30.0705 -0.0128157 0)
(30.1199 -0.0141849 0)
(30.1717 -0.0156816 0)
(30.2262 -0.0172644 0)
(30.2829 -0.0190309 0)
(30.3426 -0.0208566 0)
(30.404 -0.0229797 0)
(30.4694 -0.0250847 0)
(30.5353 -0.0277132 0)
(30.6072 -0.0301552 0)
(30.6772 -0.0335443 0)
(30.7576 -0.0364852 0)
(30.8306 -0.0410091 0)
(30.9237 -0.0451102 0)
(30.9976 -0.0511103 0)
(31.1131 -0.0589689 0)
(31.1819 -0.0666276 0)
(31.3445 -0.0874589 0)
(31.3907 -0.104278 0)
(31.6583 -0.166653 0)
(31.6028 -0.298058 0)
(45.416 0.153346 0)
(40.9301 0.070414 0)
(37.9912 0.0358428 0)
(36.2214 0.0219344 0)
(35.0832 0.0150266 0)
(34.2969 0.0110935 0)
(33.7204 0.00869233 0)
(33.2753 0.00709339 0)
(32.9228 0.00591472 0)
(32.6377 0.00504754 0)
(32.4015 0.00439669 0)
(32.2027 0.00387628 0)
(32.0336 0.00345608 0)
(31.8879 0.00312101 0)
(31.7609 0.00284605 0)
(31.6493 0.00260917 0)
(31.5508 0.00240226 0)
(31.4634 0.00222405 0)
(31.3853 0.00207151 0)
(31.3151 0.00194374 0)
(31.2516 0.00183179 0)
(31.1941 0.00172815 0)
(31.1418 0.00163401 0)
(31.0941 0.0015481 0)
(31.0506 0.00147064 0)
(31.0108 0.00140146 0)
(30.9742 0.00133976 0)
(30.9404 0.00128449 0)
(30.9092 0.00123443 0)
(30.8804 0.00118843 0)
(30.8536 0.00114555 0)
(30.8287 0.00110512 0)
(30.8056 0.00106671 0)
(30.7841 0.00103001 0)
(30.7641 0.000994776 0)
(30.7455 0.000960686 0)
(30.7281 0.000927385 0)
(30.712 0.000894129 0)
(30.697 0.000860013 0)
(30.6831 0.00082496 0)
(30.6702 0.000787526 0)
(30.6584 0.000745164 0)
(30.6476 0.000697506 0)
(30.6378 0.000642524 0)
(30.6291 0.000576103 0)
(30.6215 0.000496845 0)
(30.6152 0.000402704 0)
(30.6102 0.000291614 0)
(30.6067 0.000149643 0)
(30.6048 -2.43826e-05 0)
(30.6047 -0.000228461 0)
(30.6065 -0.000477776 0)
(30.6107 -0.000774374 0)
(30.6173 -0.00112566 0)
(30.6268 -0.00154324 0)
(30.6393 -0.00204085 0)
(30.6554 -0.0026243 0)
(30.6753 -0.00331433 0)
(30.6997 -0.00411679 0)
(30.7286 -0.00506384 0)
(30.7632 -0.00615659 0)
(30.8032 -0.00744358 0)
(30.8504 -0.00893571 0)
(30.8953 -0.0103934 0)
(30.9345 -0.0116916 0)
(30.9761 -0.0130449 0)
(31.0201 -0.0145258 0)
(31.0667 -0.0161379 0)
(31.1159 -0.0178591 0)
(31.1674 -0.0197393 0)
(31.2217 -0.021727 0)
(31.278 -0.0239419 0)
(31.3375 -0.0262325 0)
(31.3985 -0.0288868 0)
(31.4635 -0.0315259 0)
(31.529 -0.0347994 0)
(31.6003 -0.0378576 0)
(31.6698 -0.0420619 0)
(31.7493 -0.0457211 0)
(31.8218 -0.0513478 0)
(31.9137 -0.0562882 0)
(31.9866 -0.06399 0)
(32.1002 -0.0727379 0)
(32.1677 -0.0837449 0)
(32.3251 -0.104859 0)
(32.3703 -0.129544 0)
(32.6148 -0.188307 0)
(32.565 -0.312442 0)
(46.2693 0.166363 0)
(42.5686 0.086528 0)
(39.6349 0.0471274 0)
(37.7464 0.0293087 0)
(36.5075 0.0201185 0)
(35.6461 0.0148433 0)
(35.0128 0.0116117 0)
(34.5237 0.0094584 0)
(34.1364 0.00787673 0)
(33.8231 0.00671248 0)
(33.5637 0.00583783 0)
(33.3456 0.00514055 0)
(33.1602 0.00457847 0)
(33.0006 0.00412976 0)
(32.8615 0.00376162 0)
(32.7395 0.00344547 0)
(32.6319 0.00317015 0)
(32.5364 0.00293327 0)
(32.4511 0.00273095 0)
(32.3745 0.00256059 0)
(32.3053 0.002411 0)
(32.2426 0.00227357 0)
(32.1857 0.0021489 0)
(32.1338 0.00203536 0)
(32.0865 0.00193304 0)
(32.0431 0.00184164 0)
(32.0033 0.00176007 0)
(31.9666 0.00168696 0)
(31.9327 0.00162075 0)
(31.9013 0.00155995 0)
(31.8722 0.00150335 0)
(31.8452 0.0014501 0)
(31.8201 0.00139959 0)
(31.7968 0.00135143 0)
(31.775 0.00130528 0)
(31.7548 0.00126071 0)
(31.7359 0.00121726 0)
(31.7184 0.00117402 0)
(31.7021 0.00112985 0)
(31.6869 0.00108448 0)
(31.6729 0.00103621 0)
(31.6599 0.000982023 0)
(31.6481 0.000921134 0)
(31.6373 0.00085109 0)
(31.6277 0.000767012 0)
(31.6193 0.000666864 0)
(31.6121 0.000547754 0)
(31.6064 0.000406567 0)
(31.6021 0.000228408 0)
(31.5995 1.07844e-05 0)
(31.5987 -0.000245663 0)
(31.5999 -0.000558095 0)