/*--------------------------------*- C++ -*----------------------------------*\
| =========                 |                                                 |
| \\      /  F ield         | OpenFOAM: The Open Source CFD Toolbox           |
|  \\    /   O peration     | Version:  v1912                                 |
|   \\  /    A nd           | Website:  www.openfoam.com                      |
|    \\/     M anipulation  |                                                 |
\*---------------------------------------------------------------------------*/
FoamFile
{
    version     2.0;
    format      ascii;
    class       volVectorField;
    location    "10000";
    object      U;
}
// * * * * * * * * * * * * * * * * * * * * * * * * * * * * * * * * * * * * * //

dimensions      [0 1 -1 0 0 0 0];


internalField   nonuniform List<vector> 
20540
(
(39.5355 -0.000190443 0)
(52.9404 0.00488014 0)
(39.5482 -0.000615306 0)
(52.9155 0.0143831 0)
(39.5816 -0.00112967 0)
(52.8546 0.0225636 0)
(39.6475 -0.00173589 0)
(52.7487 0.029537 0)
(39.7614 -0.00244666 0)
(52.5877 0.0359787 0)
(39.943 -0.00327207 0)
(52.3604 0.0422767 0)
(40.2153 -0.00421489 0)
(52.0547 0.0484015 0)
(40.6021 -0.00526831 0)
(51.66 0.0541583 0)
(41.124 -0.00641225 0)
(51.1682 0.059293 0)
(41.7953 -0.00760844 0)
(50.5773 0.0634968 0)
(42.6201 -0.00879633 0)
(49.8944 0.0664203 0)
(43.5889 -0.00988997 0)
(49.1399 0.0677352 0)
(44.6659 -0.0107622 0)
(48.351 0.0672415 0)
(45.7599 -0.0111861 0)
(47.5821 0.0649902 0)
(46.692 -0.0107341 0)
(46.9079 0.0611736 0)
(47.1935 -0.00953843 0)
(46.5633 0.0567541 0)
(47.0728 -0.00977598 0)
(46.9193 0.0566207 0)
(46.9582 -0.00987605 0)
(47.0345 0.0563529 0)
(47.0018 -0.00947396 0)
(46.9689 0.0551686 0)
(47.0039 -0.00927027 0)
(46.9731 0.0540677 0)
(47.0011 -0.00886781 0)
(46.9771 0.052534 0)
(47.0016 -0.0085069 0)
(46.9782 0.0508075 0)
(47.0018 -0.00802291 0)
(46.98 0.0487049 0)
(47.0019 -0.00747635 0)
(46.9821 0.0462055 0)
(47.002 -0.00684487 0)
(46.9845 0.0432362 0)
(47.0021 -0.00612436 0)
(46.9872 0.0397132 0)
(47.0023 -0.00531561 0)
(46.9902 0.0355435 0)
(47.0024 -0.00441908 0)
(46.9934 0.0306154 0)
(47.0026 -0.00344644 0)
(46.9966 0.0247962 0)
(47.0027 -0.00239663 0)
(46.9995 0.017897 0)
(47.0028 -0.00137292 0)
(47.0016 0.0106038 0)
(47.0029 -0.000445749 0)
(47.0026 0.0035484 0)
(47.0029 0.000455389 0)
(47.0026 -0.00347393 0)
(47.0028 0.00138351 0)
(47.0016 -0.0105311 0)
(47.0027 0.00238972 0)
(46.9996 -0.0177121 0)
(47.0026 0.00340747 0)
(46.9967 -0.024424 0)
(47.0024 0.00435302 0)
(46.9937 -0.0301203 0)
(47.0023 0.0052265 0)
(46.9906 -0.0349713 0)
(47.0021 0.00601869 0)
(46.9877 -0.0390999 0)
(47.002 0.00672805 0)
(46.9851 -0.0426087 0)
(47.0019 0.00735344 0)
(46.9827 -0.0455845 0)
(47.0018 0.00790296 0)
(46.9806 -0.0481063 0)
(47.0016 0.00837331 0)
(46.9788 -0.0502325 0)
(47.0014 0.00878695 0)
(46.9773 -0.0520276 0)
(47.0021 0.00908968 0)
(46.9755 -0.0535112 0)
(47.0045 0.0094864 0)
(46.9697 -0.0548725 0)
(46.9828 0.00956546 0)
(46.9896 -0.0556719 0)
(46.9746 0.0100848 0)
(47.0465 -0.0569896 0)
(47.1822 0.00939997 0)
(46.6936 -0.0559972 0)
(47.015 0.0101441 0)
(46.6606 -0.0587604 0)
(46.3047 0.0110552 0)
(47.1945 -0.0630234 0)
(45.3136 0.0110306 0)
(47.893 -0.0660607 0)
(44.25 0.0104105 0)
(48.6497 -0.0675794 0)
(43.2426 0.00947873 0)
(49.4045 -0.0674033 0)
(42.3517 0.00838794 0)
(50.1133 -0.0655796 0)
(41.5999 0.00723591 0)
(50.7475 -0.0623436 0)
(40.9914 0.00609304 0)
(51.2929 -0.058007 0)
(40.5198 0.00500876 0)
(51.7456 -0.052878 0)
(40.1709 0.00401357 0)
(52.1088 -0.0472212 0)
(39.9248 0.00312296 0)
(52.3904 -0.0412518 0)
(39.76 0.00234155 0)
(52.6005 -0.0351286 0)
(39.656 0.00166619 0)
(52.7497 -0.0288493 0)
(39.5954 0.0010876 0)
(52.8484 -0.0220246 0)
(39.5644 0.000594422 0)
(52.9053 -0.0140278 0)
(39.5525 0.000184488 0)
(52.9286 -0.00476043 0)
(5.74892 0.00586708 0)
(4.3778 1.29304e-05 0)
(4.02402 3.91342e-06 0)
(3.81432 2.83818e-06 0)
(3.67692 1.99097e-06 0)
(3.57984 1.52174e-06 0)
(3.50725 1.22286e-06 0)
(3.44974 1.01087e-06 0)
(3.40358 8.45503e-07 0)
(3.36579 7.28923e-07 0)
(3.33396 6.41722e-07 0)
(3.30687 5.6845e-07 0)
(3.28364 5.09218e-07 0)
(3.26343 4.63142e-07 0)
(3.24563 4.24736e-07 0)
(3.22988 3.90459e-07 0)
(3.21591 3.6028e-07 0)
(3.20346 3.34815e-07 0)
(3.19228 3.13643e-07 0)
(3.18217 2.95436e-07 0)
(3.17299 2.79102e-07 0)
(3.16464 2.64014e-07 0)
(3.15703 2.50056e-07 0)
(3.15008 2.37396e-07 0)
(3.14373 2.26153e-07 0)
(3.1379 2.16237e-07 0)
(3.13253 2.07466e-07 0)
(3.12758 1.99649e-07 0)
(3.12299 1.92559e-07 0)
(3.11873 1.85975e-07 0)
(3.11477 1.7975e-07 0)
(3.1111 1.73784e-07 0)
(3.10767 1.68021e-07 0)
(3.10449 1.6241e-07 0)
(3.10153 1.56891e-07 0)
(3.09878 1.5136e-07 0)
(3.09622 1.45666e-07 0)
(3.09384 1.39608e-07 0)
(3.09164 1.32903e-07 0)
(3.0896 1.26853e-07 0)
(3.08773 6.35438e-08 0)
(3.08596 -1.5183e-08 0)
(3.08435 4.13939e-08 0)
(3.08306 1.19566e-07 0)
(3.08195 1.18026e-07 0)
(3.081 -4.20579e-09 0)
(3.08011 -3.22629e-07 0)
(3.07946 -3.03891e-07 0)
(3.07942 -5.81769e-08 0)
(3.0795 -3.00047e-07 0)
(3.07982 -2.30613e-07 0)
(3.08083 2.855e-08 0)
(3.0822 -2.41498e-07 0)
(3.0842 -3.33417e-07 0)
(3.08684 -5.46964e-07 0)
(3.08999 -1.05831e-06 0)
(3.09388 -1.27943e-06 0)
(3.09862 -1.34271e-06 0)
(3.10438 -1.7104e-06 0)
(3.11111 -2.20993e-06 0)
(3.11909 -2.72718e-06 0)
(3.12832 -3.09932e-06 0)
(3.13911 -3.7539e-06 0)
(3.14934 -5.12864e-06 0)
(3.15823 -5.70387e-06 0)
(3.16774 -6.32783e-06 0)
(3.17791 -7.15547e-06 0)
(3.18871 -8.05962e-06 0)
(3.20015 -9.11386e-06 0)
(3.21223 -1.02496e-05 0)
(3.22498 -1.16206e-05 0)
(3.23836 -1.29954e-05 0)
(3.25253 -1.48697e-05 0)
(3.26725 -1.64455e-05 0)
(3.28305 -1.92849e-05 0)
(3.29915 -2.07712e-05 0)
(3.31695 -2.57933e-05 0)
(3.33446 -2.60795e-05 0)
(3.35509 -3.66598e-05 0)
(3.374 -3.23189e-05 0)
(3.39905 -5.79234e-05 0)
(3.42 -3.97712e-05 0)
(3.45193 -0.000106066 0)
(3.47979 -6.51219e-05 0)
(3.51948 -0.000238386 0)
(3.59431 -0.000268835 0)
(3.61781 -0.00185234 0)
(3.619 -0.0260715 0)
(17.0244 0.0176632 0)
(13.5763 0.000850949 0)
(12.5351 0.000301521 0)
(11.9174 0.000193757 0)
(11.5096 0.000135712 0)
(11.2202 0.00010184 0)
(11.0033 8.09602e-05 0)
(10.8311 6.68624e-05 0)
(10.6926 5.61309e-05 0)
(10.579 4.82877e-05 0)
(10.4832 4.23885e-05 0)
(10.4016 3.75464e-05 0)
(10.3316 3.3618e-05 0)
(10.2706 3.05142e-05 0)
(10.2169 2.7946e-05 0)
(10.1693 2.56855e-05 0)
(10.127 2.36868e-05 0)
(10.0893 2.1976e-05 0)
(10.0555 2.05396e-05 0)
(10.0249 1.9311e-05 0)
(9.99713 1.82162e-05 0)
(9.97182 1.72102e-05 0)
(9.94875 1.62791e-05 0)
(9.9277 1.54274e-05 0)
(9.90844 1.46618e-05 0)
(9.89076 1.3982e-05 0)
(9.87449 1.33784e-05 0)
(9.85945 1.28388e-05 0)
(9.84552 1.23492e-05 0)
(9.83259 1.18966e-05 0)
(9.82058 1.14711e-05 0)
(9.80941 1.10667e-05 0)
(9.79902 1.06794e-05 0)
(9.78935 1.03069e-05 0)
(9.78035 9.94709e-06 0)
(9.77198 9.59693e-06 0)
(9.76419 9.25147e-06 0)
(9.75695 8.90434e-06 0)
(9.75024 8.54596e-06 0)
(9.74404 8.17049e-06 0)
(9.73833 7.60025e-06 0)
(9.733 6.91608e-06 0)
(9.72821 6.57494e-06 0)
(9.72411 6.26195e-06 0)
(9.72054 5.53631e-06 0)
(9.71756 4.38839e-06 0)
(9.71485 2.43002e-06 0)
(9.71285 9.29475e-07 0)
(9.71238 2.36999e-07 0)
(9.71239 -2.17356e-06 0)
(9.71325 -4.41811e-06 0)
(9.71583 -6.37277e-06 0)
(9.71962 -1.07325e-05 0)
(9.72526 -1.52859e-05 0)
(9.73254 -2.03981e-05 0)
(9.74141 -2.70996e-05 0)
(9.75249 -3.44027e-05 0)
(9.76596 -4.27117e-05 0)
(9.78221 -5.29293e-05 0)
(9.80136 -6.51862e-05 0)
(9.82404 -7.92929e-05 0)
(9.8503 -9.53418e-05 0)
(9.88081 -0.000114834 0)
(9.90959 -0.000135732 0)
(9.93483 -0.000152316 0)
(9.96181 -0.000170206 0)
(9.99056 -0.000190534 0)
(10.0211 -0.000212488 0)
(10.0533 -0.000236405 0)
(10.0873 -0.000262517 0)
(10.1232 -0.000291025 0)
(10.1607 -0.000322351 0)
(10.2004 -0.000356615 0)
(10.2415 -0.00039466 0)
(10.2854 -0.000436961 0)
(10.3301 -0.000483725 0)
(10.3793 -0.000538902 0)
(10.4275 -0.000596936 0)
(10.4839 -0.000677526 0)
(10.5353 -0.000746361 0)
(10.6026 -0.000897893 0)
(10.6587 -0.000953362 0)
(10.7417 -0.0013405 0)
(10.8146 -0.00128786 0)
(10.9087 -0.00271354 0)
(11.092 -0.00244526 0)
(11.094 -0.00532128 0)
(11.91 -0.159538 0)
(25.5982 0.0294007 0)
(21.3533 0.00279675 0)
(20.0074 0.00105243 0)
(19.2047 0.000681607 0)
(18.6672 0.00048365 0)
(18.2814 0.000366078 0)
(17.9897 0.000292872 0)
(17.7565 0.000243114 0)
(17.5679 0.000204975 0)
(17.4126 0.000176899 0)
(17.281 0.000155691 0)
(17.1686 0.000138225 0)
(17.0718 0.000123999 0)
(16.9874 0.000112725 0)
(16.9128 0.000103381 0)
(16.8466 9.51397e-05 0)
(16.7878 8.7834e-05 0)
(16.7353 8.15644e-05 0)
(16.6881 7.62916e-05 0)
(16.6453 7.17775e-05 0)
(16.6064 6.77525e-05 0)
(16.571 6.405e-05 0)
(16.5386 6.0618e-05 0)
(16.5091 5.74734e-05 0)
(16.4821 5.46424e-05 0)
(16.4573 5.2126e-05 0)
(16.4344 4.98895e-05 0)
(16.4133 4.78891e-05 0)
(16.3938 4.60731e-05 0)
(16.3756 4.43936e-05 0)
(16.3587 4.28146e-05 0)
(16.343 4.13129e-05 0)
(16.3284 3.98745e-05 0)
(16.3149 3.84911e-05 0)
(16.3022 3.71545e-05 0)
(16.2905 3.58546e-05 0)
(16.2795 3.4574e-05 0)
(16.2694 3.329e-05 0)
(16.26 3.19685e-05 0)
(16.2513 3.05815e-05 0)
(16.2433 2.88101e-05 0)
(16.236 2.67893e-05 0)
(16.2295 2.5132e-05 0)
(16.2236 2.32561e-05 0)
(16.2185 2.05784e-05 0)
(16.2143 1.66812e-05 0)
(16.211 1.07947e-05 0)
(16.2089 5.95383e-06 0)
(16.2078 2.09121e-06 0)
(16.2078 -6.41874e-06 0)
(16.2096 -1.50602e-05 0)
(16.2128 -2.35435e-05 0)
(16.218 -3.73138e-05 0)
(16.2253 -5.32118e-05 0)
(16.2349 -7.19452e-05 0)
(16.2471 -9.46078e-05 0)
(16.2624 -0.000120405 0)
(16.2809 -0.000150899 0)
(16.3032 -0.000186912 0)
(16.3295 -0.00022943 0)
(16.3606 -0.0002787 0)
(16.3966 -0.000336009 0)
(16.4391 -0.000404617 0)
(16.4799 -0.000473923 0)
(16.5151 -0.00053123 0)
(16.5522 -0.00059248 0)
(16.5916 -0.000661579 0)
(16.6334 -0.000736323 0)
(16.6774 -0.000817129 0)
(16.7238 -0.000905166 0)
(16.7726 -0.00100016 0)
(16.8236 -0.00110501 0)
(16.8773 -0.00121701 0)
(16.9328 -0.0013439 0)
(16.9921 -0.00147796 0)
(17.0521 -0.00163493 0)
(17.118 -0.00180066 0)
(17.1823 -0.00200118 0)
(17.2571 -0.00222351 0)
(17.3253 -0.0024781 0)
(17.4133 -0.0028677 0)
(17.4871 -0.00311476 0)
(17.5926 -0.00412656 0)
(17.688 -0.00394455 0)
(17.7987 -0.00807371 0)
(18.0292 -0.00515513 0)
(17.9877 -0.0244114 0)
(19.2159 -0.198388 0)
(30.6634 0.0399497 0)
(25.9331 0.00536082 0)
(24.401 0.00208933 0)
(23.5222 0.00134118 0)
(22.942 0.000952624 0)
(22.5293 0.000722144 0)
(22.2189 0.00057859 0)
(21.9721 0.000481012 0)
(21.773 0.000406205 0)
(21.6093 0.000350974 0)
(21.4711 0.000309229 0)
(21.3531 0.000274862 0)
(21.2517 0.000246815 0)
(21.1633 0.000224543 0)
(21.0853 0.000206088 0)
(21.0161 0.000189819 0)
(20.9547 0.000175378 0)
(20.8998 0.000162961 0)
(20.8505 0.000152502 0)
(20.8059 0.000143547 0)
(20.7654 0.000135566 0)
(20.7284 0.000128225 0)
(20.6947 0.000121417 0)
(20.664 0.000115172 0)
(20.6358 0.000109543 0)
(20.61 0.000104534 0)
(20.5862 0.000100078 0)
(20.5642 9.60924e-05 0)
(20.5438 9.24744e-05 0)
(20.5249 8.91298e-05 0)
(20.5073 8.59862e-05 0)
(20.491 8.29971e-05 0)
(20.4758 8.01337e-05 0)
(20.4617 7.7379e-05 0)
(20.4485 7.47168e-05 0)
(20.4363 7.21271e-05 0)
(20.4249 6.95752e-05 0)
(20.4144 6.70168e-05 0)
(20.4046 6.4384e-05 0)
(20.3955 6.16123e-05 0)
(20.3872 5.84832e-05 0)
(20.3797 5.48841e-05 0)
(20.3729 5.1071e-05 0)
(20.3668 4.67682e-05 0)
(20.3615 4.13263e-05 0)
(20.3571 3.44706e-05 0)
(20.3539 2.53055e-05 0)
(20.3518 1.50366e-05 0)
(20.3506 4.51352e-06 0)
(20.3508 -1.06155e-05 0)
(20.3528 -2.86104e-05 0)
(20.3561 -4.8771e-05 0)
(20.3616 -7.54398e-05 0)
(20.3691 -0.000106724 0)
(20.379 -0.000143027 0)
(20.3918 -0.000186729 0)
(20.4077 -0.000237963 0)
(20.4271 -0.00029855 0)
(20.4504 -0.000369457 0)
(20.4779 -0.000453134 0)
(20.5104 -0.000550106 0)
(20.548 -0.000663529 0)
(20.5924 -0.000796897 0)
(20.6353 -0.000928537 0)
(20.6721 -0.00104229 0)
(20.7109 -0.00116391 0)
(20.752 -0.00129863 0)
(20.7956 -0.00144433 0)
(20.8416 -0.00160119 0)
(20.8899 -0.00177213 0)
(20.9408 -0.00195544 0)
(20.9939 -0.00215856 0)
(21.05 -0.00237297 0)
(21.1078 -0.00261868 0)
(21.1696 -0.00287185 0)
(21.232 -0.00317723 0)
(21.3006 -0.00348259 0)
(21.3674 -0.00387746 0)
(21.4452 -0.00427205 0)
(21.5161 -0.00478362 0)
(21.6069 -0.0054544 0)
(21.6842 -0.0059693 0)
(21.7906 -0.00775477 0)
(21.8934 -0.00733066 0)
(21.9954 -0.0149939 0)
(22.2464 -0.00767145 0)
(22.1735 -0.0517942 0)
(23.3048 -0.202953 0)
(33.9803 0.0511136 0)
(28.8309 0.00850111 0)
(27.0901 0.00336782 0)
(26.1234 0.002134 0)
(25.4948 0.00150993 0)
(25.052 0.0011423 0)
(24.7213 0.000913997 0)
(24.4599 0.000759194 0)
(24.2499 0.000640886 0)
(24.0778 0.000553482 0)
(23.933 0.000487483 0)
(23.8097 0.000433281 0)
(23.7038 0.000389032 0)
(23.6117 0.000353863 0)
(23.5306 0.000324754 0)
(23.4588 0.000299141 0)
(23.395 0.000276412 0)
(23.3381 0.000256848 0)
(23.287 0.000240354 0)
(23.2409 0.000226234 0)
(23.1989 0.000213663 0)
(23.1607 0.000202116 0)
(23.1259 0.00019141 0)
(23.0941 0.000181587 0)
(23.065 0.000172725 0)
(23.0383 0.000164832 0)
(23.0137 0.000157809 0)
(22.991 0.000151526 0)
(22.97 0.000145824 0)
(22.9505 0.000140557 0)
(22.9323 0.00013561 0)
(22.9155 0.000130908 0)
(22.8998 0.000126405 0)
(22.8852 0.000122074 0)
(22.8717 0.000117887 0)
(22.859 0.000113814 0)
(22.8473 0.000109801 0)
(22.8364 0.000105777 0)
(22.8263 0.000101637 0)
(22.8169 9.72755e-05 0)
(22.8083 9.24591e-05 0)
(22.8005 8.69354e-05 0)
(22.7935 8.08507e-05 0)
(22.7872 7.39179e-05 0)
(22.7817 6.52992e-05 0)
(22.7772 5.4669e-05 0)
(22.7737 4.11847e-05 0)
(22.7714 2.54163e-05 0)
(22.7701 7.77967e-06 0)
(22.7703 -1.57024e-05 0)
(22.7721 -4.41088e-05 0)
(22.7756 -7.7114e-05 0)
(22.7811 -0.000118343 0)
(22.7887 -0.000166756 0)
(22.7989 -0.000223489 0)
(22.8119 -0.00029168 0)
(22.8281 -0.000371913 0)
(22.8478 -0.000466791 0)
(22.8716 -0.000577551 0)
(22.8996 -0.000708309 0)
(22.9328 -0.000859653 0)
(22.9712 -0.00103739 0)
(23.0163 -0.00124545 0)
(23.0596 -0.00144937 0)
(23.0971 -0.00162767 0)
(23.1366 -0.00181729 0)
(23.1786 -0.00202687 0)
(23.223 -0.00225381 0)
(23.2699 -0.00249762 0)
(23.3191 -0.00276354 0)
(23.3711 -0.00304768 0)
(23.4252 -0.00336347 0)
(23.4823 -0.00369457 0)
(23.5412 -0.00407671 0)
(23.6042 -0.00446492 0)
(23.6677 -0.00494121 0)
(23.7377 -0.00540355 0)
(23.8056 -0.00602255 0)
(23.8847 -0.00660909 0)
(23.9568 -0.00741669 0)
(24.0487 -0.00839515 0)
(24.1276 -0.00922287 0)
(24.2339 -0.0118398 0)
(24.3386 -0.0112154 0)
(24.4401 -0.0223573 0)
(24.6771 -0.0121663 0)
(24.6595 -0.0734469 0)
(25.441 -0.204061 0)
(36.5265 0.0636628 0)
(31.0639 0.0126954 0)
(29.1083 0.00510945 0)
(28.0431 0.00318886 0)
(27.3581 0.00224138 0)
(26.8792 0.00168854 0)
(26.5233 0.00134684 0)
(26.2435 0.00111606 0)
(26.0192 0.000940626 0)
(25.8361 0.00081109 0)
(25.6824 0.000713465 0)
(25.5517 0.000633604 0)
(25.4396 0.000568454 0)
(25.3423 0.000516648 0)
(25.2568 0.000473852 0)
(25.1811 0.000436304 0)
(25.1139 0.000403026 0)
(25.054 0.000374368 0)
(25.0003 0.00035019 0)
(24.9518 0.0003295 0)
(24.9077 0.000311114 0)
(24.8676 0.000294254 0)
(24.8311 0.000278641 0)
(24.7977 0.000264315 0)
(24.7672 0.000251385 0)
(24.7392 0.000239862 0)
(24.7134 0.000229607 0)
(24.6896 0.00022043 0)
(24.6676 0.000212108 0)
(24.6471 0.000204427 0)
(24.6281 0.000197221 0)
(24.6105 0.000190378 0)
(24.5941 0.000183828 0)
(24.5788 0.00017753 0)
(24.5646 0.000171445 0)
(24.5513 0.000165524 0)
(24.539 0.000159691 0)
(24.5276 0.000153843 0)
(24.517 0.000147828 0)
(24.5072 0.000141496 0)
(24.4982 0.00013451 0)
(24.4899 0.000126515 0)
(24.4825 0.000117724 0)
(24.4759 0.000107669 0)
(24.4701 9.51629e-05 0)
(24.4653 7.96286e-05 0)
(24.4616 6.03302e-05 0)
(24.459 3.80578e-05 0)
(24.4575 1.2014e-05 0)
(24.4576 -2.20426e-05 0)
(24.4593 -6.28736e-05 0)
(24.4627 -0.000111181 0)
(24.4683 -0.000170285 0)
(24.4761 -0.000239739 0)
(24.4864 -0.000321872 0)
(24.4996 -0.000420356 0)
(24.5162 -0.000536219 0)
(24.5363 -0.000673297 0)
(24.5606 -0.000833086 0)
(24.5893 -0.00102182 0)
(24.6232 -0.00124004 0)
(24.6625 -0.00149708 0)
(24.7085 -0.00179766 0)
(24.7526 -0.00209151 0)
(24.7908 -0.00234942 0)
(24.8312 -0.00262213 0)
(24.8741 -0.00292385 0)
(24.9195 -0.00325111 0)
(24.9675 -0.00360217 0)
(25.0178 -0.0039855 0)
(25.0709 -0.00439398 0)
(25.1261 -0.00484912 0)
(25.1845 -0.00532398 0)
(25.2446 -0.00587495 0)
(25.3089 -0.00642912 0)
(25.3736 -0.00711705 0)
(25.4449 -0.00777154 0)
(25.5141 -0.00866745 0)
(25.5946 -0.00948836 0)
(25.6679 -0.0106601 0)
(25.7609 -0.0120062 0)
(25.8407 -0.0132306 0)
(25.9485 -0.0167938 0)
(26.0505 -0.0161016 0)
(26.1622 -0.0307708 0)
(26.3598 -0.0191027 0)
(26.4447 -0.0915736 0)
(26.8609 -0.214394 0)
(38.6786 0.0774634 0)
(33.0134 0.0181826 0)
(30.8436 0.00747941 0)
(29.6727 0.00460648 0)
(28.9259 0.00321628 0)
(28.4067 0.00241246 0)
(28.0227 0.0019178 0)
(27.7221 0.00158505 0)
(27.4818 0.0013335 0)
(27.286 0.0011479 0)
(27.122 0.00100828 0)
(26.9829 0.000894533 0)
(26.8638 0.000801831 0)
(26.7605 0.000728085 0)
(26.6697 0.00066728 0)
(26.5895 0.000614099 0)
(26.5184 0.000567034 0)
(26.4551 0.000526493 0)
(26.3983 0.000492264 0)
(26.347 0.000462987 0)
(26.3005 0.000437014 0)
(26.2582 0.000413246 0)
(26.2196 0.000391261 0)
(26.1844 0.000371097 0)
(26.1523 0.000352891 0)
(26.1227 0.000336656 0)
(26.0956 0.000322201 0)
(26.0705 0.000309268 0)
(26.0473 0.000297546 0)
(26.0257 0.000286738 0)
(26.0058 0.000276608 0)
(25.9872 0.000266999 0)
(25.9699 0.000257809 0)
(25.9538 0.000248977 0)
(25.9388 0.000240446 0)
(25.9249 0.000232149 0)
(25.9119 0.000223976 0)
(25.8999 0.000215787 0)
(25.8887 0.000207371 0)
(25.8783 0.000198518 0)
(25.8688 0.000188754 0)
(25.8601 0.000177602 0)
(25.8523 0.000165364 0)
(25.8453 0.000151348 0)
(25.8391 0.000133945 0)
(25.834 0.000112222 0)
(25.8299 8.54389e-05 0)
(25.8271 5.48669e-05 0)
(25.8255 1.83686e-05 0)
(25.8253 -2.9033e-05 0)
(25.8269 -8.55081e-05 0)
(25.8303 -0.000152893 0)
(25.8358 -0.000234579 0)
(25.8436 -0.000330657 0)
(25.8541 -0.000444809 0)
(25.8675 -0.000581509 0)
(25.8844 -0.000742232 0)
(25.9048 -0.000932435 0)
(25.9296 -0.00115394 0)
(25.9588 -0.00141566 0)
(25.9934 -0.00171801 0)
(26.0335 -0.00207461 0)
(26.0804 -0.00249096 0)
(26.1252 -0.00289784 0)
(26.1642 -0.00325626 0)
(26.2055 -0.00363313 0)
(26.2492 -0.00405011 0)
(26.2955 -0.00450302 0)
(26.3444 -0.00498827 0)
(26.3957 -0.00551855 0)
(26.4498 -0.00608227 0)
(26.506 -0.0067115 0)
(26.5655 -0.00736542 0)
(26.6266 -0.0081268 0)
(26.692 -0.00888698 0)
(26.7578 -0.00983774 0)
(26.8303 -0.0107299 0)
(26.9004 -0.0119675 0)
(26.982 -0.0130768 0)
(27.0562 -0.0146973 0)
(27.1503 -0.0164777 0)
(27.2301 -0.0182237 0)
(27.3405 -0.0227956 0)
(27.4362 -0.0223958 0)
(27.5642 -0.0400964 0)
(27.7131 -0.0294873 0)
(27.8981 -0.106616 0)
(28.0525 -0.231997 0)
(40.59 0.092352 0)
(34.838 0.0251637 0)
(32.4577 0.0106507 0)
(31.1731 0.00649272 0)
(30.3587 0.0045054 0)
(29.7951 0.00336535 0)
(29.3798 0.00266638 0)
(29.0559 0.00219789 0)
(28.7978 0.00184571 0)
(28.5878 0.00158604 0)
(28.4124 0.00139102 0)
(28.2639 0.00123278 0)
(28.1368 0.00110398 0)
(28.0268 0.00100147 0)
(27.9304 0.000917097 0)
(27.8452 0.000843534 0)
(27.7697 0.000778544 0)
(27.7025 0.000722555 0)
(27.6423 0.000675253 0)
(27.588 0.000634806 0)
(27.5387 0.000598984 0)
(27.4939 0.000566268 0)
(27.4531 0.000536051 0)
(27.4159 0.000508349 0)
(27.3819 0.00048333 0)
(27.3507 0.00046101 0)
(27.322 0.00044113 0)
(27.2955 0.000423342 0)
(27.271 0.000407228 0)
(27.2483 0.000392384 0)
(27.2272 0.000378488 0)
(27.2075 0.00036532 0)
(27.1893 0.000352739 0)
(27.1723 0.000340656 0)
(27.1565 0.000328991 0)
(27.1418 0.000317652 0)
(27.1281 0.00030649 0)
(27.1154 0.000295315 0)
(27.1036 0.00028384 0)
(27.0927 0.000271784 0)
(27.0826 0.000258519 0)
(27.0734 0.000243397 0)
(27.0651 0.000226783 0)
(27.0576 0.000207748 0)
(27.0511 0.000184226 0)
(27.0456 0.000154847 0)
(27.0412 0.000118719 0)
(27.0381 7.76182e-05 0)
(27.0362 2.81046e-05 0)
(27.0358 -3.58223e-05 0)
(27.0372 -0.000111811 0)
(27.0405 -0.000202891 0)
(27.0459 -0.000312763 0)
(27.0537 -0.000442103 0)
(27.0643 -0.000596068 0)
(27.0778 -0.000780302 0)
(27.0948 -0.000996803 0)
(27.1155 -0.00125303 0)
(27.1406 -0.00155124 0)
(27.1702 -0.00190362 0)
(27.2054 -0.00231046 0)
(27.246 -0.00279045 0)
(27.2937 -0.00334983 0)
(27.3391 -0.00389665 0)
(27.3787 -0.00438006 0)
(27.4206 -0.00488611 0)
(27.465 -0.00544535 0)
(27.512 -0.00605345 0)
(27.5617 -0.00670428 0)
(27.6137 -0.00741582 0)
(27.6686 -0.00817074 0)
(27.7256 -0.00901421 0)
(27.7859 -0.0098882 0)
(27.8478 -0.0109077 0)
(27.914 -0.0119205 0)
(27.9806 -0.013192 0)
(28.0538 -0.0143751 0)
(28.1247 -0.0160269 0)
(28.2069 -0.0174864 0)
(28.2817 -0.0196537 0)
(28.3766 -0.0219308 0)
(28.4556 -0.0243746 0)
(28.5691 -0.029928 0)
(28.6567 -0.0304286 0)
(28.8018 -0.0502083 0)
(28.9059 -0.0436875 0)
(29.1607 -0.119972 0)
(29.1717 -0.251543 0)
(42.3208 0.108137 0)
(36.6106 0.0338623 0)
(34.0288 0.0148457 0)
(32.622 0.00899038 0)
(31.7328 0.00620476 0)
(31.1195 0.00461671 0)
(30.669 0.00364586 0)
(30.3189 0.00299721 0)
(30.0404 0.00251226 0)
(29.8145 0.00215497 0)
(29.6262 0.00188697 0)
(29.4669 0.00167039 0)
(29.3309 0.00149435 0)
(29.2134 0.00135419 0)
(29.1104 0.00123901 0)
(29.0196 0.0011389 0)
(28.9392 0.00105064 0)
(28.8676 0.000974606 0)
(28.8036 0.000910328 0)
(28.7459 0.000855376 0)
(28.6936 0.000806784 0)
(28.6461 0.000762497 0)
(28.6028 0.000721659 0)
(28.5633 0.000684244 0)
(28.5272 0.000650453 0)
(28.4942 0.000620292 0)
(28.4638 0.00059342 0)
(28.4357 0.000569372 0)
(28.4097 0.000547597 0)
(28.3857 0.000527557 0)
(28.3633 0.000508818 0)
(28.3426 0.000491083 0)
(28.3232 0.000474156 0)
(28.3053 0.000457913 0)
(28.2885 0.000442244 0)
(28.273 0.000427025 0)
(28.2585 0.000412057 0)
(28.245 0.000397088 0)
(28.2325 0.000381739 0)
(28.221 0.000365636 0)
(28.2103 0.000347979 0)
(28.2005 0.000327903 0)
(28.1917 0.00030578 0)
(28.1837 0.00028044 0)
(28.1768 0.000249322 0)
(28.1708 0.000210544 0)
(28.1661 0.000162898 0)
(28.1626 0.000108594 0)
(28.1604 4.29782e-05 0)
(28.1598 -4.12014e-05 0)
(28.1609 -0.000141279 0)
(28.1639 -0.000261541 0)
(28.1692 -0.000406206 0)
(28.177 -0.000576668 0)
(28.1874 -0.000779651 0)
(28.201 -0.00102238 0)
(28.218 -0.00130752 0)
(28.2388 -0.00164498 0)
(28.2641 -0.00203754 0)
(28.294 -0.00250136 0)
(28.3295 -0.00303665 0)
(28.3706 -0.00366809 0)
(28.4187 -0.00440269 0)
(28.4646 -0.00512098 0)
(28.5046 -0.00575792 0)
(28.5469 -0.00642267 0)
(28.5918 -0.00715587 0)
(28.6393 -0.00795368 0)
(28.6894 -0.00880685 0)
(28.742 -0.00973973 0)
(28.7973 -0.010728 0)
(28.8549 -0.0118323 0)
(28.9157 -0.0129745 0)
(28.9781 -0.0143071 0)
(29.0448 -0.0156273 0)
(29.1119 -0.0172859 0)
(29.1855 -0.0188228 0)
(29.2568 -0.0209718 0)
(29.3393 -0.0228521 0)
(29.4142 -0.0256832 0)
(29.5096 -0.0285167 0)
(29.5873 -0.0318892 0)
(29.7036 -0.0383308 0)
(29.7831 -0.0404942 0)
(29.9418 -0.0613337 0)
(30.0133 -0.0613953 0)
(30.3002 -0.133886 0)
(30.253 -0.269451 0)
(43.8837 0.124468 0)
(38.3649 0.044498 0)
(35.6003 0.0203476 0)
(34.0631 0.0122941 0)
(33.091 0.00844774 0)
(32.4217 0.00626388 0)
(31.9311 0.00493125 0)
(31.551 0.00404313 0)
(31.2494 0.00338265 0)
(31.0049 0.00289634 0)
(30.8017 0.00253187 0)
(30.6301 0.00223849 0)
(30.4839 0.00200041 0)
(30.3576 0.00181079 0)
(30.2471 0.00165515 0)
(30.1498 0.00152032 0)
(30.0637 0.00140171 0)
(29.9873 0.00129958 0)
(29.9188 0.00121318 0)
(29.8572 0.00113931 0)
(29.8014 0.00107409 0)
(29.7507 0.00101478 0)
(29.7046 0.000960189 0)
(29.6625 0.00091022 0)
(29.6241 0.000865094 0)
(29.5889 0.000824801 0)
(29.5565 0.000788886 0)
(29.5267 0.000756743 0)
(29.4991 0.000727648 0)
(29.4735 0.000700894 0)
(29.4497 0.000675908 0)
(29.4277 0.00065229 0)
(29.4071 0.000629778 0)
(29.388 0.000608199 0)
(29.3703 0.000587404 0)
(29.3537 0.000567227 0)
(29.3383 0.000547406 0)
(29.324 0.000527612 0)
(29.3107 0.000507353 0)
(29.2984 0.000486137 0)
(29.2871 0.000462969 0)
(29.2766 0.000436717 0)
(29.2672 0.000407691 0)
(29.2587 0.000374459 0)
(29.2512 0.000333931 0)
(29.2447 0.000283637 0)
(29.2395 0.000221865 0)
(29.2356 0.000151132 0)
(29.233 6.56685e-05 0)
(29.2321 -4.32403e-05 0)
(29.2329 -0.000172887 0)
(29.2357 -0.000328894 0)
(29.2407 -0.000516241 0)
(29.2482 -0.000737244 0)
(29.2585 -0.00100028 0)
(29.272 -0.00131459 0)
(29.2889 -0.00168373 0)
(29.3097 -0.00212054 0)
(29.335 -0.0026285 0)
(29.365 -0.00322854 0)
(29.4006 -0.00392084 0)
(29.4419 -0.00473717 0)
(29.4903 -0.00568544 0)
(29.5364 -0.00661272 0)
(29.5766 -0.00743685 0)
(29.6191 -0.00829555 0)
(29.6643 -0.00924038 0)
(29.712 -0.0102688 0)
(29.7623 -0.0113679 0)
(29.8151 -0.0125696 0)
(29.8708 -0.013841 0)
(29.9286 -0.0152614 0)
(29.9896 -0.0167287 0)
(30.0522 -0.0184391 0)
(30.1191 -0.020132 0)
(30.1863 -0.0222548 0)
(30.26 -0.0242204 0)
(30.3314 -0.0269628 0)
(30.4138 -0.0293472 0)
(30.4886 -0.0329796 0)
(30.584 -0.0364359 0)
(30.6603 -0.0410084 0)
(30.7782 -0.0482418 0)
(30.8515 -0.0528262 0)
(31.0171 -0.0740041 0)
(31.0703 -0.0820733 0)
(31.359 -0.149999 0)
(31.2983 -0.285311 0)
(45.2616 0.140756 0)
(40.1108 0.0572161 0)
(37.198 0.027494 0)
(35.525 0.0166594 0)
(34.4617 0.0114144 0)
(33.7294 0.00843974 0)
(33.1931 0.00662556 0)
(32.7785 0.00541856 0)
(32.45 0.00452531 0)
(32.1842 0.00386786 0)
(31.9635 0.00337531 0)
(31.7776 0.0029803 0)
(31.6193 0.00266034 0)
(31.4827 0.00240534 0)
(31.3635 0.00219625 0)
(31.2586 0.00201571 0)
(31.1659 0.0018573 0)
(31.0836 0.00172098 0)
(31.01 0.00160556 0)
(30.9438 0.00150687 0)
(30.8839 0.00141986 0)
(30.8295 0.00134091 0)
(30.78 0.00126839 0)
(30.735 0.0012021 0)
(30.6938 0.00114225 0)
(30.6561 0.00108878 0)
(30.6214 0.00104111 0)
(30.5895 0.000998434 0)
(30.5599 0.000959814 0)
(30.5326 0.000924331 0)
(30.5072 0.000891236 0)
(30.4836 0.000859999 0)
(30.4616 0.000830267 0)
(30.4412 0.000801808 0)
(30.4223 0.000774419 0)
(30.4046 0.000747877 0)
(30.3881 0.000721843 0)
(30.3728 0.000695891 0)
(30.3586 0.000669389 0)
(30.3454 0.000641698 0)
(30.3332 0.000611599 0)
(30.322 0.000577634 0)
(30.3118 0.000539973 0)
(30.3027 0.000496883 0)
(30.2945 0.000444698 0)
(30.2875 0.000380292 0)
(30.2817 0.000301241 0)
(30.2773 0.000210179 0)
(30.2743 0.000100311 0)
(30.2728 -3.87313e-05 0)
(30.2732 -0.000204531 0)
(30.2756 -0.00040416 0)
(30.2803 -0.000643636 0)
(30.2875 -0.000926486 0)
(30.2976 -0.00126282 0)
(30.3107 -0.00166439 0)
(30.3275 -0.00213589 0)
(30.3481 -0.00269373 0)
(30.3733 -0.00334226 0)
(30.4031 -0.00410807 0)
(30.4387 -0.00499151 0)
(30.4799 -0.0060326 0)
(30.5282 -0.00724056 0)
(30.5743 -0.00842144 0)
(30.6145 -0.00947254 0)
(30.6571 -0.0105673 0)
(30.7022 -0.0117686 0)
(30.75 -0.0130763 0)
(30.8003 -0.0144731 0)
(30.8531 -0.0159996 0)
(30.9088 -0.0176136 0)
(30.9665 -0.0194148 0)
(31.0275 -0.0212753 0)
(31.0901 -0.0234389 0)
(31.1568 -0.0255826 0)
(31.2239 -0.0282591 0)
(31.2973 -0.0307433 0)
(31.3685 -0.03419 0)
(31.4505 -0.0371788 0)
(31.5248 -0.0417679 0)
(31.6197 -0.0459372 0)
(31.6948 -0.0519888 0)
(31.8125 -0.0599956 0)
(31.8822 -0.067605 0)
(32.0478 -0.088868 0)
(32.0941 -0.105326 0)
(32.3665 -0.168958 0)
(32.3088 -0.3002 0)
(46.4136 0.156107 0)
(41.8374 0.0719816 0)
(38.8356 0.036656 0)
(37.0279 0.0224105 0)
(35.866 0.0153425 0)
(35.0635 0.0113227 0)
(34.4753 0.0088683 0)
(34.0212 0.00723632 0)
(33.6617 0.00603378 0)
(33.3709 0.00514872 0)
(33.1299 0.00448544 0)
(32.9271 0.00395533 0)
(32.7546 0.00352672 0)
(32.606 0.00318485 0)
(32.4764 0.0029047 0)
(32.3625 0.00266359 0)
(32.2619 0.00245266 0)
(32.1727 0.00227125 0)
(32.093 0.00211753 0)
(32.0213 0.00198604 0)
(31.9565 0.00187025 0)
(31.8977 0.00176544 0)
(31.8443 0.0016694 0)
(31.7957 0.00158173 0)
(31.7512 0.00150262 0)
(31.7105 0.00143192 0)
(31.6731 0.00136886 0)
(31.6387 0.00131238 0)
(31.6068 0.00126127 0)
(31.5773 0.00121435 0)
(31.55 0.00117065 0)
(31.5246 0.00112948 0)
(31.5009 0.00109035 0)
(31.479 0.00105296 0)
(31.4585 0.00101703 0)
(31.4395 0.000982271 0)
(31.4217 0.00094824 0)
(31.4052 0.00091439 0)
(31.3899 0.000879918 0)
(31.3757 0.000843995 0)
(31.3625 0.000805146 0)
(31.3504 0.000761528 0)
(31.3393 0.000713065 0)
(31.3294 0.000657669 0)
(31.3205 0.000591045 0)
(31.3127 0.000509332 0)
(31.3063 0.000409187 0)
(31.3012 0.000293088 0)
(31.2975 0.000153283 0)
(31.2956 -2.2413e-05 0)
(31.2954 -0.000232262 0)
(31.2973 -0.000484947 0)
(31.3015 -0.000787837 0)
(31.3083 -0.00114605 0)
(31.3179 -0.00157153 0)
(31.3307 -0.00207907 0)
(31.347 -0.00267485 0)
(31.3673 -0.00337954 0)
(31.3921 -0.00419862 0)
(31.4217 -0.00516535 0)
(31.4569 -0.00628053 0)
(31.4978 -0.00759373 0)
(31.5459 -0.00911618 0)
(31.5917 -0.0106036 0)
(31.6317 -0.0119285 0)
(31.674 -0.0133093 0)
(31.719 -0.0148203 0)
(31.7665 -0.0164648 0)
(31.8166 -0.0182205 0)
(31.8692 -0.0201382 0)
(31.9245 -0.0221649 0)
(31.982 -0.0244231 0)
(32.0426 -0.0267575 0)
(32.1049 -0.0294623 0)
(32.1711 -0.0321498 0)
(32.2379 -0.0354831 0)
(32.3106 -0.0385941 0)
(32.3814 -0.0428702 0)
(32.4625 -0.0465886 0)
(32.5363 -0.0522988 0)
(32.6299 -0.0573178 0)
(32.7041 -0.065098 0)
(32.8198 -0.0739979 0)
(32.8882 -0.0850093 0)
(33.0485 -0.106527 0)
(33.0939 -0.130998 0)
(33.3428 -0.190858 0)
(33.2913 -0.315048 0)
(47.2814 0.169337 0)
(43.5094 0.0884244 0)
(40.5137 0.0481812 0)
(38.585 0.0299409 0)
(37.3202 0.0205405 0)
(36.4408 0.0151496 0)
(35.7946 0.0118469 0)
(35.2956 0.00964905 0)
(34.9005 0.0080353 0)
(34.5808 0.00684708 0)
(34.3161 0.00595565 0)
(34.0936 0.00524528 0)
(33.9044 0.00467196 0)
(33.7415 0.00421418 0)
(33.5997 0.00383906 0)
(33.4751 0.0035172 0)
(33.3652 0.00323653 0)
(33.2678 0.00299533 0)
(33.1807 0.00279075 0)
(33.1025 0.00261563 0)
(33.0319 0.00246156 0)
(32.9679 0.00232245 0)
(32.9097 0.00219531 0)
(32.8567 0.00207946 0)
(32.8084 0.00197497 0)
(32.7641 0.00188158 0)
(32.7234 0.00179821 0)
(32.6859 0.00172351 0)
(32.6513 0.00165592 0)
(32.6192 0.00159391 0)
(32.5895 0.00153623 0)
(32.5619 0.00148198 0)
(32.5362 0.00143053 0)
(32.5124 0.00138146 0)
(32.4901 0.0013344 0)
(32.4695 0.00128896 0)
(32.4502 0.00124457 0)
(32.4322 0.00120053 0)
(32.4156 0.00115582 0)
(32.4001 0.00110939 0)
(32.3857 0.00105945 0)
(32.3725 0.0010037 0)
(32.3604 0.000941715 0)
(32.3494 0.000870958 0)
(32.3395 0.000786437 0)
(32.3309 0.000683477 0)
(32.3236 0.000557607 0)
(32.3177 0.0004108 0)
(32.3133 0.000234355 0)
(32.3106 1.41479e-05 0)
(32.3098 -0.000249206 0)
(32.311 -0.000566225 0)
(32.3146 -0.000945965 0)