/*--------------------------------*- C++ -*----------------------------------*\
| =========                 |                                                 |
| \\      /  F ield         | OpenFOAM: The Open Source CFD Toolbox           |
|  \\    /   O peration     | Version:  v2006                                 |
|   \\  /    A nd           | Website:  www.openfoam.com                      |
|    \\/     M anipulation  |                                                 |
\*---------------------------------------------------------------------------*/
FoamFile
{
    version     2.0;
    format      ascii;
    class       volScalarField;
    location    "10289";
    object      nut;
}
// * * * * * * * * * * * * * * * * * * * * * * * * * * * * * * * * * * * * * //

dimensions      [0 2 -1 0 0 0 0];


internalField   nonuniform List<scalar> 
184860
(
1.80411e-08
3.86584e-08
1.22422e-07
4.2452e-07
2.38298e-06
4.79225e-05
1.80466e-08
3.86869e-08
1.22553e-07
4.25e-07
2.38661e-06
4.79504e-05
1.80584e-08
3.87481e-08
1.22835e-07
4.26026e-07
2.39429e-06
4.80079e-05
1.80772e-08
3.88466e-08
1.23286e-07
4.27666e-07
2.4064e-06
4.80964e-05
1.81038e-08
3.89874e-08
1.23929e-07
4.29993e-07
2.42332e-06
4.82162e-05
1.81392e-08
3.91758e-08
1.24786e-07
4.33081e-07
2.4454e-06
4.83667e-05
1.8184e-08
3.94176e-08
1.25883e-07
4.37009e-07
2.47293e-06
4.85461e-05
1.82393e-08
3.97188e-08
1.27242e-07
4.41852e-07
2.50612e-06
4.87511e-05
1.83059e-08
4.00857e-08
1.2889e-07
4.47684e-07
2.54507e-06
4.89767e-05
1.83846e-08
4.05249e-08
1.30851e-07
4.54571e-07
2.58969e-06
4.92161e-05
1.84762e-08
4.1043e-08
1.33148e-07
4.6257e-07
2.63972e-06
4.94602e-05
1.85815e-08
4.16464e-08
1.358e-07
4.71718e-07
2.6946e-06
4.96981e-05
1.87009e-08
4.23413e-08
1.38822e-07
4.82027e-07
2.75344e-06
4.99162e-05
1.88349e-08
4.3133e-08
1.42221e-07
4.93473e-07
2.81495e-06
5.00986e-05
1.89836e-08
4.4026e-08
1.45993e-07
5.05982e-07
2.87736e-06
5.0227e-05
1.91468e-08
4.50227e-08
1.50118e-07
5.19418e-07
2.9384e-06
5.02804e-05
1.93238e-08
4.61232e-08
1.54554e-07
5.33563e-07
2.99518e-06
5.02355e-05
1.95134e-08
4.73244e-08
1.59235e-07
5.48097e-07
3.04429e-06
5.00663e-05
1.97141e-08
4.86185e-08
1.64059e-07
5.62585e-07
3.08172e-06
4.97443e-05
1.99231e-08
4.99924e-08
1.68886e-07
5.76452e-07
3.10299e-06
4.92393e-05
2.01371e-08
5.14261e-08
1.73527e-07
5.8898e-07
3.10348e-06
4.85198e-05
2.03516e-08
5.28915e-08
1.77744e-07
5.993e-07
3.0784e-06
4.75528e-05
2.05612e-08
5.43513e-08
1.81246e-07
6.06409e-07
3.02332e-06
4.63059e-05
2.07592e-08
5.57592e-08
1.83695e-07
6.09208e-07
2.93454e-06
4.47475e-05
2.09377e-08
5.70595e-08
1.84717e-07
6.06572e-07
2.80961e-06
4.28496e-05
2.1088e-08
5.81794e-08
1.83955e-07
5.9743e-07
2.6478e-06
4.05897e-05
2.12002e-08
5.90282e-08
1.81102e-07
5.8089e-07
2.45059e-06
3.79543e-05
2.12643e-08
5.95067e-08
1.75934e-07
5.56443e-07
2.22198e-06
3.49434e-05
2.12703e-08
5.95136e-08
1.68355e-07
5.24068e-07
1.96856e-06
3.15757e-05
2.12091e-08
5.89575e-08
1.58444e-07
4.84395e-07
1.69934e-06
2.78956e-05
2.10734e-08
5.77618e-08
1.46475e-07
4.38528e-07
1.42557e-06
2.39794e-05
2.08587e-08
5.58883e-08
1.32923e-07
3.8787e-07
1.16005e-06
1.99401e-05
2.05644e-08
5.33438e-08
1.18403e-07
3.34439e-07
9.14703e-07
1.59272e-05
2.01943e-08
5.01899e-08
1.03538e-07
2.80823e-07
6.99033e-07
1.21159e-05
1.97575e-08
4.65441e-08
8.89774e-08
2.29638e-07
5.1893e-07
8.68387e-06
1.92676e-08
4.25709e-08
7.5315e-08
1.8315e-07
3.76121e-07
5.81149e-06
1.8743e-08
3.84645e-08
6.30167e-08
1.42961e-07
2.68528e-07
3.61365e-06
1.82046e-08
3.44239e-08
5.23744e-08
1.09849e-07
1.91368e-07
2.09236e-06
1.76745e-08
3.06288e-08
4.34965e-08
8.38029e-08
1.36837e-07
1.13164e-06
1.71739e-08
2.72193e-08
3.63319e-08
6.41672e-08
9.83338e-08
5.77724e-07
1.67207e-08
2.42852e-08
3.07165e-08
4.98913e-08
7.14349e-08
2.89773e-07
1.63284e-08
2.18665e-08
2.64264e-08
3.96868e-08
5.29388e-08
1.51386e-07
1.60044e-08
1.99615e-08
2.32228e-08
3.23879e-08
4.04119e-08
8.54673e-08
1.57501e-08
1.85403e-08
2.08434e-08
2.71683e-08
3.20186e-08
5.32899e-08
1.55613e-08
1.74991e-08
1.90995e-08
2.34479e-08
2.64242e-08
3.68571e-08
1.54296e-08
1.67399e-08
1.78478e-08
2.08148e-08
2.26596e-08
2.80403e-08
1.5344e-08
1.61963e-08
1.69582e-08
1.89637e-08
2.01173e-08
2.30217e-08
1.52928e-08
1.58195e-08
1.6336e-08
1.76725e-08
1.84011e-08
2.00257e-08
1.52655e-08
1.55707e-08
1.59115e-08
1.67833e-08
1.72462e-08
1.8181e-08
1.5253e-08
1.54166e-08
1.56321e-08
1.61838e-08
1.64759e-08
1.70275e-08
1.5247e-08
1.5328e-08
1.54565e-08
1.57919e-08
1.59723e-08
1.63078e-08
1.5244e-08
1.5282e-08
1.53521e-08
1.55458e-08
1.56541e-08
1.58839e-08
1.52425e-08
1.52601e-08
1.52954e-08
1.54e-08
1.54624e-08
1.56289e-08
1.5242e-08
1.52503e-08
1.5267e-08
1.532e-08
1.53535e-08
1.54578e-08
1.52418e-08
1.52462e-08
1.52539e-08
1.52798e-08
1.52953e-08
1.53503e-08
1.52418e-08
1.52447e-08
1.52483e-08
1.52609e-08
1.52668e-08
1.52897e-08
1.52418e-08
1.52443e-08
1.5246e-08
1.52525e-08
1.52539e-08
1.52593e-08
1.52418e-08
1.52442e-08
1.52452e-08
1.52489e-08
1.52485e-08
1.52466e-08
1.52418e-08
1.52442e-08
1.52449e-08
1.52472e-08
1.52463e-08
1.52423e-08
1.52418e-08
1.52442e-08
1.52448e-08
1.52465e-08
1.52454e-08
1.52408e-08
1.52418e-08
1.52441e-08
1.52447e-08
1.52462e-08
1.5245e-08
1.52402e-08
1.52418e-08
1.52441e-08
1.52447e-08
1.52461e-08
1.52449e-08
1.524e-08
1.52418e-08
1.5244e-08
1.52446e-08
1.52459e-08
1.52448e-08
1.52398e-08
1.52418e-08
1.5244e-08
1.52445e-08
1.52458e-08
1.52447e-08
1.52397e-08
1.52417e-08
1.52439e-08
1.52444e-08
1.52457e-08
1.52446e-08
1.52397e-08
1.52417e-08
1.52439e-08
1.52444e-08
1.52455e-08
1.52445e-08
1.52396e-08
1.52417e-08
1.52438e-08
1.52443e-08
1.52454e-08
1.52444e-08
1.52395e-08
1.52417e-08
1.52438e-08
1.52442e-08
1.52452e-08
1.52443e-08
1.52394e-08
1.52417e-08
1.52437e-08
1.52441e-08
1.52451e-08
1.52442e-08
1.52394e-08
1.52417e-08
1.52436e-08
1.5244e-08
1.52449e-08
1.52441e-08
1.52393e-08
1.52417e-08
1.52435e-08
1.52439e-08
1.52448e-08
1.5244e-08
1.52393e-08
1.52417e-08
1.52435e-08
1.52438e-08
1.52446e-08
1.52438e-08
1.52393e-08
1.52416e-08
1.52434e-08
1.52437e-08
1.52444e-08
1.52437e-08
1.52393e-08
1.52416e-08
1.52433e-08
1.52436e-08
1.52442e-08
1.52435e-08
1.52393e-08
1.52416e-08
1.52432e-08
1.52434e-08
1.5244e-08
1.52434e-08
1.52392e-08
1.52416e-08
1.52431e-08
1.52433e-08
1.52439e-08
1.52432e-08
1.52392e-08
1.52416e-08
1.52431e-08
1.52432e-08
1.52437e-08
1.5243e-08
1.52392e-08
1.52416e-08
1.5243e-08
1.52431e-08
1.52435e-08
1.52429e-08
1.52392e-08
1.52416e-08
1.52429e-08
1.5243e-08
1.52433e-08
1.52427e-08
1.52392e-08
1.52415e-08
1.52428e-08
1.52429e-08
1.52431e-08
1.52425e-08
1.52392e-08
1.52415e-08
1.52427e-08
1.52427e-08
1.52429e-08
1.52423e-08
1.52392e-08
1.52415e-08
1.52426e-08
1.52426e-08
1.52427e-08
1.52421e-08
1.52391e-08
1.52415e-08
1.52425e-08
1.52424e-08
1.52424e-08
1.52418e-08
1.52391e-08
1.52415e-08
1.52424e-08
1.52422e-08
1.52422e-08
1.52415e-08
1.52389e-08
1.52415e-08
1.52423e-08
1.52418e-08
1.52418e-08
1.52411e-08
1.52386e-08
1.52415e-08
1.52422e-08
1.52417e-08
1.52415e-08
1.52408e-08
1.52385e-08
1.52415e-08
1.52421e-08
1.52416e-08
1.52414e-08
1.52406e-08
1.52383e-08
1.52415e-08
1.5242e-08
1.52416e-08
1.52412e-08
1.52403e-08
1.52382e-08
1.52414e-08
1.5242e-08
1.52416e-08
1.52411e-08
1.524e-08
1.52379e-08
1.52414e-08
1.52419e-08
1.52415e-08
1.52409e-08
1.52397e-08
1.52377e-08
1.52414e-08
1.52418e-08
1.52414e-08
1.52408e-08
1.52396e-08
1.52377e-08
1.52414e-08
1.52417e-08
1.52414e-08
1.52407e-08
1.52396e-08
1.52378e-08
1.52414e-08
1.52416e-08
1.52413e-08
1.52406e-08
1.52395e-08
1.52378e-08
1.52414e-08
1.52415e-08
1.52412e-08
1.52405e-08
1.52395e-08
1.52378e-08
1.52414e-08
1.52414e-08
1.52411e-08
1.52405e-08
1.52394e-08
1.52378e-08
1.52413e-08
1.52413e-08
1.52409e-08
1.52403e-08
1.52392e-08
1.52378e-08
1.52413e-08
1.5241e-08
1.52405e-08
1.52399e-08
1.52387e-08
1.52375e-08
1.52413e-08
1.5241e-08
1.52405e-08
1.52399e-08
1.52387e-08
1.52375e-08
1.52413e-08
1.52413e-08
1.52409e-08
1.52403e-08
1.52391e-08
1.52379e-08
1.52414e-08
1.52414e-08
1.52411e-08
1.52405e-08
1.52393e-08
1.52379e-08
1.52414e-08
1.52415e-08
1.52412e-08
1.52406e-08
1.52394e-08
1.52379e-08
1.52414e-08
1.52416e-08
1.52413e-08
1.52406e-08
1.52394e-08
1.52379e-08
1.52414e-08
1.52417e-08
1.52414e-08
1.52407e-08
1.52395e-08
1.52378e-08
1.52414e-08
1.52418e-08
1.52415e-08
1.52408e-08
1.52396e-08
1.52377e-08
1.52414e-08
1.52419e-08
1.52415e-08
1.52409e-08
1.52397e-08
1.52377e-08
1.52414e-08
1.5242e-08
1.52416e-08
1.52411e-08
1.524e-08
1.52378e-08
1.52415e-08
1.5242e-08
1.52416e-08
1.52412e-08
1.52403e-08
1.52382e-08
1.52415e-08
1.52421e-08
1.52416e-08
1.52414e-08
1.52406e-08
1.52383e-08
1.52415e-08
1.52422e-08
1.52417e-08
1.52415e-08
1.52408e-08
1.52385e-08
1.52415e-08
1.52423e-08
1.52418e-08
1.52417e-08
1.52411e-08
1.52386e-08
1.52415e-08
1.52424e-08
1.52422e-08
1.52422e-08
1.52415e-08
1.52389e-08
1.52415e-08
1.52425e-08
1.52424e-08
1.52424e-08
1.52418e-08
1.52391e-08
1.52415e-08
1.52426e-08
1.52426e-08
1.52427e-08
1.52421e-08
1.52391e-08
1.52415e-08
1.52427e-08
1.52427e-08
1.52429e-08
1.52423e-08
1.52392e-08
1.52415e-08
1.52428e-08
1.52429e-08
1.52431e-08
1.52425e-08
1.52392e-08
1.52416e-08
1.52429e-08
1.5243e-08
1.52433e-08
1.52427e-08
1.52392e-08
1.52416e-08
1.5243e-08
1.52431e-08
1.52435e-08
1.52428e-08
1.52392e-08
1.52416e-08
1.5243e-08
1.52432e-08
1.52436e-08
1.5243e-08
1.52392e-08
1.52416e-08
1.52431e-08
1.52433e-08
1.52438e-08
1.52432e-08
1.52392e-08
1.52416e-08
1.52432e-08
1.52434e-08
1.5244e-08
1.52434e-08
1.52393e-08
1.52416e-08
1.52433e-08
1.52435e-08
1.52442e-08
1.52435e-08
1.52393e-08
1.52416e-08
1.52434e-08
1.52437e-08
1.52444e-08
1.52437e-08
1.52393e-08
1.52417e-08
1.52435e-08
1.52438e-08
1.52446e-08
1.52438e-08
1.52393e-08
1.52417e-08
1.52435e-08
1.52439e-08
1.52447e-08
1.52439e-08
1.52393e-08
1.52417e-08
1.52436e-08
1.5244e-08
1.52449e-08
1.52441e-08
1.52393e-08
1.52417e-08
1.52437e-08
1.52441e-08
1.52451e-08
1.52442e-08
1.52394e-08
1.52417e-08
1.52437e-08
1.52442e-08
1.52452e-08
1.52443e-08
1.52394e-08
1.52417e-08
1.52438e-08
1.52443e-08
1.52454e-08
1.52444e-08
1.52395e-08
1.52417e-08
1.52439e-08
1.52443e-08
1.52455e-08
1.52445e-08
1.52396e-08
1.52417e-08
1.52439e-08
1.52444e-08
1.52456e-08
1.52446e-08
1.52396e-08
1.52417e-08
1.5244e-08
1.52445e-08
1.52458e-08
1.52447e-08
1.52397e-08
1.52418e-08
1.5244e-08
1.52446e-08
1.52459e-08
1.52447e-08
1.52398e-08
1.52418e-08
1.52441e-08
1.52446e-08
1.5246e-08
1.52448e-08
1.52399e-08
1.52418e-08
1.52441e-08
1.52447e-08
1.52462e-08
1.5245e-08
1.52401e-08
1.52418e-08
1.52442e-08
1.52448e-08
1.52464e-08
1.52452e-08
1.52405e-08
1.52418e-08
1.52442e-08
1.52449e-08
1.52469e-08
1.52459e-08
1.52416e-08
1.52418e-08
1.52442e-08
1.5245e-08
1.5248e-08
1.52474e-08
1.52446e-08
1.52418e-08
1.52442e-08
1.52456e-08
1.52507e-08
1.52513e-08
1.52531e-08
1.52418e-08
1.52444e-08
1.52471e-08
1.52567e-08
1.52605e-08
1.52753e-08
1.52418e-08
1.52453e-08
1.52511e-08
1.52703e-08
1.52811e-08
1.53213e-08
1.52418e-08
1.52481e-08
1.52603e-08
1.52997e-08
1.53248e-08
1.54067e-08
1.52421e-08
1.52549e-08
1.52808e-08
1.53595e-08
1.54082e-08
1.55478e-08
1.52432e-08
1.52706e-08
1.53229e-08
1.54723e-08
1.55581e-08
1.57587e-08
1.52455e-08
1.5304e-08
1.54027e-08
1.56672e-08
1.58114e-08
1.60927e-08
1.52499e-08
1.537e-08
1.5541e-08
1.59834e-08
1.62182e-08
1.66571e-08
1.52587e-08
1.54889e-08
1.57653e-08
1.64729e-08
1.68462e-08
1.75749e-08
1.52775e-08
1.56862e-08
1.61114e-08
1.72051e-08
1.77907e-08
1.90341e-08
1.53155e-08
1.59923e-08
1.66249e-08
1.8273e-08
1.9193e-08
2.13698e-08
1.5382e-08
1.64421e-08
1.73642e-08
1.9806e-08
2.12643e-08
2.51933e-08
1.54877e-08
1.70771e-08
1.84082e-08
2.19859e-08
2.43183e-08
3.16986e-08
1.56441e-08
1.79519e-08
1.98645e-08
2.5065e-08
2.88252e-08
4.3372e-08
1.58606e-08
1.91433e-08
2.18676e-08
2.9384e-08
3.55189e-08
6.54572e-08
1.61438e-08
2.07655e-08
2.45743e-08
3.54071e-08
4.55082e-08
1.09279e-07
1.64953e-08
2.28771e-08
2.81955e-08
4.37919e-08
6.02958e-08
1.99684e-07
1.69112e-08
2.54965e-08
3.29849e-08
5.54668e-08
8.1903e-08
3.87596e-07
1.73815e-08
2.86089e-08
3.91717e-08
7.17379e-08
1.12983e-07
7.69274e-07
1.78914e-08
3.21557e-08
4.69541e-08
9.37187e-08
1.57048e-07
1.46619e-06
1.84218e-08
3.60288e-08
5.64515e-08
1.22302e-07
2.19097e-07
2.62194e-06
1.89517e-08
4.00753e-08
6.76552e-08
1.57888e-07
3.06751e-07
4.38564e-06
1.94598e-08
4.41111e-08
8.03909e-08
2.00202e-07
4.26273e-07
6.82513e-06
1.99267e-08
4.79422e-08
9.43079e-08
2.48177e-07
5.81447e-07
9.89537e-06
2.03362e-08
5.1389e-08
1.08901e-07
2.9999e-07
7.72999e-07
1.34506e-05
2.06766e-08
5.43071e-08
1.23568e-07
3.53281e-07
9.97779e-07
1.73157e-05
2.09411e-08
5.66015e-08
1.37678e-07
4.05486e-07
1.24874e-06
2.13163e-05
2.11273e-08
5.82311e-08
1.50639e-07
4.54218e-07
1.51571e-06
2.52891e-05
2.12373e-08
5.9205e-08
1.61877e-07
4.97746e-07
1.7867e-06
2.91008e-05
2.12763e-08
5.95739e-08
1.70993e-07
5.34903e-07
2.04935e-06
3.26535e-05
2.12522e-08
5.94174e-08
1.77782e-07
5.6465e-07
2.29363e-06
3.58836e-05
2.11741e-08
5.88282e-08
1.82221e-07
5.86576e-07
2.51147e-06
3.87566e-05
2.10516e-08
5.79045e-08
1.84445e-07
6.00858e-07
2.69718e-06
4.12602e-05
2.08946e-08
5.67407e-08
1.84695e-07
6.08096e-07
2.84761e-06
4.33986e-05
2.07122e-08
5.54218e-08
1.83287e-07
6.09232e-07
2.96192e-06
4.51876e-05
2.05128e-08
5.40118e-08
1.80573e-07
6.05318e-07
3.04131e-06
4.66508e-05
2.03037e-08
5.25625e-08
1.76912e-07
5.97445e-07
3.08848e-06
4.78164e-05
2.00911e-08
5.11169e-08
1.7262e-07
5.86663e-07
3.10722e-06
4.87151e-05
1.98801e-08
4.9709e-08
1.67969e-07
5.73917e-07
3.10193e-06
4.93789e-05
1.96748e-08
4.83642e-08
1.63178e-07
5.60016e-07
3.07725e-06
4.98391e-05
1.94782e-08
4.71005e-08
1.5842e-07
5.4563e-07
3.03765e-06
5.01263e-05
1.92926e-08
4.59296e-08
1.53824e-07
5.31286e-07
2.98738e-06
5.02692e-05
1.91197e-08
4.48579e-08
1.49481e-07
5.17387e-07
2.93022e-06
5.02951e-05
1.89606e-08
4.3888e-08
1.45451e-07
5.04222e-07
2.8694e-06
5.02288e-05
1.88156e-08
4.30195e-08
1.41772e-07
4.91989e-07
2.80761e-06
5.00924e-05
1.8685e-08
4.22494e-08
1.38458e-07
4.80812e-07
2.74699e-06
4.99059e-05
1.85686e-08
4.15735e-08
1.35513e-07
4.70753e-07
2.68918e-06
4.96866e-05
1.8466e-08
4.09865e-08
1.32929e-07
4.61832e-07
2.63537e-06
4.94498e-05
1.83767e-08
4.04823e-08
1.30691e-07
4.54032e-07
2.58639e-06
4.92082e-05
1.83e-08
4.00547e-08
1.28781e-07
4.47316e-07
2.54273e-06
4.89722e-05
1.8235e-08
3.96973e-08
1.27174e-07
4.41628e-07
2.50465e-06
4.87504e-05
1.81811e-08
3.94038e-08
1.25848e-07
4.36903e-07
2.47221e-06
4.85492e-05
1.81373e-08
3.9168e-08
1.24778e-07
4.33069e-07
2.4453e-06
4.83733e-05
1.81029e-08
3.89841e-08
1.23941e-07
4.30053e-07
2.42371e-06
4.82259e-05
1.80768e-08
3.88466e-08
1.23313e-07
4.2778e-07
2.40717e-06
4.81087e-05
1.80585e-08
3.87503e-08
1.22872e-07
4.26176e-07
2.39532e-06
4.80221e-05
1.80469e-08
3.86904e-08
1.22597e-07
4.25172e-07
2.38781e-06
4.79657e-05
1.80415e-08
3.86625e-08
1.22468e-07
4.24702e-07
2.38425e-06
4.79384e-05
1.03627e-10
5.52303e-11
5.0441e-11
4.80665e-11
4.63265e-11
4.49267e-11
4.37674e-11
4.27975e-11
4.19759e-11
4.12693e-11
4.06531e-11
4.01091e-11
3.96242e-11
3.91882e-11
3.87934e-11
3.84339e-11
3.81047e-11
3.78018e-11
3.75221e-11
3.72629e-11
3.7022e-11
3.67973e-11
3.65873e-11
3.63905e-11
3.62058e-11
3.6032e-11
3.58683e-11
3.57137e-11
3.55676e-11
3.54292e-11
3.52981e-11
3.51735e-11
3.50552e-11
3.49426e-11
3.48354e-11
3.47331e-11
3.46355e-11
3.45423e-11
3.44532e-11
3.4368e-11
3.42863e-11
3.42081e-11
3.4133e-11
3.4061e-11
3.39919e-11
3.39255e-11
3.38616e-11
3.38002e-11
3.3741e-11
3.36841e-11
3.36292e-11
3.35763e-11
3.35253e-11
3.34761e-11
3.34286e-11
3.33827e-11
3.33383e-11
3.32955e-11
3.32541e-11
3.3214e-11
3.31752e-11
3.31377e-11
3.31013e-11
3.30661e-11
3.3032e-11
3.29989e-11
3.29669e-11
3.29358e-11
3.29056e-11
3.28764e-11
3.2848e-11
3.28204e-11
3.27936e-11
3.27676e-11
3.27423e-11
3.27177e-11
3.26938e-11
3.26706e-11
3.2648e-11
3.2626e-11
3.26047e-11
3.25839e-11
3.25636e-11
3.25439e-11
3.25247e-11
3.2506e-11
3.24878e-11
3.247e-11
3.24527e-11
3.24359e-11
3.24194e-11
3.24034e-11
3.23878e-11
3.23726e-11
3.23577e-11
3.23432e-11
3.23291e-11
3.23153e-11
3.23019e-11
3.22887e-11
3.22759e-11
3.22634e-11
3.22512e-11
3.22393e-11
3.22277e-11
3.22164e-11
3.22053e-11
3.21946e-11
3.2184e-11
3.21738e-11
3.21638e-11
3.2154e-11
3.21445e-11
3.21352e-11
3.21262e-11
3.21174e-11
3.21089e-11
3.21006e-11
3.20925e-11
3.20847e-11
3.20771e-11
3.20698e-11
3.20626e-11
3.20558e-11
3.20491e-11
3.20428e-11
3.20366e-11
3.20308e-11
3.20251e-11
3.20198e-11
3.20147e-11
3.20099e-11
3.20054e-11
3.20012e-11
3.19973e-11
3.19937e-11
3.19904e-11
3.19875e-11
3.19849e-11
3.19827e-11
3.19809e-11
3.19794e-11
3.19784e-11
3.19778e-11
3.19776e-11
3.19779e-11
3.19787e-11
3.19799e-11
3.19817e-11
3.19841e-11
3.1987e-11
3.19905e-11
3.19946e-11
3.19994e-11
3.20048e-11
3.2011e-11
3.20179e-11
3.20256e-11
3.2034e-11
3.20433e-11
3.20535e-11
3.20645e-11
3.20765e-11
3.20895e-11
3.21036e-11
3.21187e-11
3.21349e-11
3.21522e-11
3.21708e-11
3.21906e-11
3.22118e-11
3.22342e-11
3.22582e-11
3.22835e-11
3.23105e-11
3.2339e-11
3.23692e-11
3.24011e-11
3.24348e-11
3.24703e-11
3.25079e-11
3.25474e-11
3.25892e-11
3.2633e-11
3.26793e-11
3.27278e-11
3.2779e-11
3.28327e-11
3.28893e-11
3.29384e-11
3.29778e-11
3.3018e-11
3.30594e-11
3.31016e-11
3.31448e-11
3.31889e-11
3.3234e-11
3.328e-11
3.33271e-11
3.33751e-11
3.34241e-11
3.34741e-11
3.35251e-11
3.35771e-11
3.36302e-11
3.36842e-11
3.37394e-11
3.37955e-11
3.38528e-11
3.39111e-11
3.39706e-11
3.40311e-11
3.40928e-11
3.41556e-11
3.42196e-11
3.42848e-11
3.43512e-11
3.44188e-11
3.44877e-11
3.45578e-11
3.46293e-11
3.47022e-11
3.47765e-11
3.48522e-11
3.49293e-11
3.5008e-11
3.50883e-11
3.51703e-11
3.52539e-11
3.53394e-11
3.54267e-11
3.55159e-11
3.56073e-11
3.57008e-11
3.57966e-11
3.58949e-11
3.59958e-11
3.60995e-11
3.62062e-11
3.63161e-11
3.64297e-11
3.65469e-11
3.66687e-11
3.67947e-11
3.69266e-11
3.70633e-11
3.72082e-11
3.73581e-11
3.75205e-11
3.76868e-11
3.7874e-11
3.80614e-11
3.82862e-11
3.85009e-11
3.87869e-11
3.90383e-11
3.94317e-11
3.97383e-11
4.03395e-11
4.07422e-11
4.18358e-11
4.23945e-11
4.53981e-11
4.67916e-11
3.29019e-09
1.56512e-09
1.3845e-09
1.29614e-09
1.23215e-09
1.18131e-09
1.13959e-09
1.10497e-09
1.07582e-09
1.05091e-09
1.0293e-09
1.01031e-09
9.93451e-10
9.78354e-10
9.64735e-10
9.52369e-10
9.41081e-10
9.30727e-10
9.2119e-10
9.12373e-10
9.04195e-10
8.96586e-10
8.89488e-10
8.82851e-10
8.76631e-10
8.70791e-10
8.65295e-10
8.60116e-10
8.55227e-10
8.50604e-10
8.46228e-10
8.42078e-10
8.3814e-10
8.34397e-10
8.30835e-10
8.27443e-10
8.24209e-10
8.21123e-10
8.18176e-10
8.15358e-10
8.12662e-10
8.10081e-10
8.07607e-10
8.05236e-10
8.0296e-10
8.00775e-10
7.98675e-10
7.96657e-10
7.94716e-10
7.92848e-10
7.91048e-10
7.89315e-10
7.87644e-10
7.86033e-10
7.84478e-10
7.82978e-10
7.81529e-10
7.80129e-10
7.78776e-10
7.77468e-10
7.76202e-10
7.74978e-10
7.73793e-10
7.72646e-10
7.71535e-10
7.70458e-10
7.69415e-10
7.68403e-10
7.67422e-10
7.6647e-10
7.65547e-10
7.6465e-10
7.6378e-10
7.62935e-10
7.62114e-10
7.61316e-10
7.60541e-10
7.59787e-10
7.59055e-10
7.58342e-10
7.57649e-10
7.56974e-10
7.56318e-10
7.55679e-10
7.55057e-10
7.54452e-10
7.53862e-10
7.53287e-10
7.52727e-10
7.52182e-10
7.51651e-10
7.51132e-10
7.50627e-10
7.50135e-10
7.49655e-10
7.49186e-10
7.4873e-10
7.48284e-10
7.47849e-10
7.47425e-10
7.47011e-10
7.46608e-10
7.46214e-10
7.4583e-10
7.45455e-10
7.45089e-10
7.44732e-10
7.44384e-10
7.44044e-10
7.43713e-10
7.4339e-10
7.43075e-10
7.42768e-10
7.42469e-10
7.42178e-10
7.41895e-10
7.41619e-10
7.41351e-10
7.41091e-10
7.40838e-10
7.40593e-10
7.40356e-10
7.40126e-10
7.39904e-10
7.39689e-10
7.39483e-10
7.39285e-10
7.39095e-10
7.38913e-10
7.38739e-10
7.38575e-10
7.38419e-10
7.38272e-10
7.38135e-10
7.38007e-10
7.3789e-10
7.37782e-10
7.37686e-10
7.376e-10
7.37526e-10
7.37464e-10
7.37414e-10
7.37378e-10
7.37354e-10
7.37345e-10
7.3735e-10
7.37371e-10
7.37407e-10
7.37459e-10
7.37529e-10
7.37617e-10
7.37724e-10
7.3785e-10
7.37996e-10
7.38164e-10
7.38354e-10
7.38567e-10
7.38805e-10
7.39067e-10
7.39356e-10
7.39672e-10
7.40017e-10
7.40391e-10
7.40796e-10
7.41234e-10
7.41705e-10
7.42212e-10
7.42755e-10
7.43336e-10
7.43956e-10
7.44618e-10
7.45323e-10
7.46072e-10
7.46868e-10
7.47713e-10
7.48608e-10
7.49555e-10
7.50557e-10
7.51616e-10
7.52734e-10
7.53915e-10
7.55159e-10
7.56472e-10
7.57853e-10
7.59309e-10
7.60839e-10
7.62453e-10
7.64144e-10
7.6593e-10
7.67479e-10
7.68724e-10
7.69994e-10
7.71299e-10
7.72633e-10
7.73998e-10
7.75393e-10
7.7682e-10
7.78277e-10
7.79765e-10
7.81285e-10
7.82837e-10
7.8442e-10
7.86036e-10
7.87685e-10
7.89366e-10
7.91081e-10
7.9283e-10
7.94613e-10
7.9643e-10
7.98282e-10
8.0017e-10
8.02094e-10
8.04054e-10
8.06051e-10
8.08086e-10
8.10159e-10
8.12271e-10
8.14424e-10
8.16617e-10
8.18852e-10
8.21129e-10
8.2345e-10
8.25817e-10
8.2823e-10
8.3069e-10
8.332e-10
8.35761e-10
8.38374e-10
8.41043e-10
8.4377e-10
8.46556e-10
8.49405e-10
8.5232e-10
8.55304e-10
8.58363e-10
8.61498e-10
8.64718e-10
8.68025e-10
8.71428e-10
8.74933e-10
8.78552e-10
8.82288e-10
8.86163e-10
8.90174e-10
8.94365e-10
8.98708e-10
9.03301e-10
9.08052e-10
9.13183e-10
9.18445e-10
9.24329e-10
9.30239e-10
9.37257e-10
9.44002e-10
9.52854e-10
9.60715e-10
9.72763e-10
9.82265e-10
1.00047e-09
1.01276e-09
1.04537e-09
1.06214e-09
1.14723e-09
1.21463e-09
2.43527e-08
1.2254e-08
1.07976e-08
1.00786e-08
9.55761e-09
9.14437e-09
8.80573e-09
8.5247e-09
8.28829e-09
8.08628e-09
7.91114e-09
7.75732e-09
7.62082e-09
7.49863e-09
7.38844e-09
7.28843e-09
7.19717e-09
7.11348e-09
7.03643e-09
6.96522e-09
6.89918e-09
6.83775e-09
6.78047e-09
6.72692e-09
6.67675e-09
6.62965e-09
6.58534e-09
6.54359e-09
6.50419e-09
6.46694e-09
6.43168e-09
6.39826e-09
6.36654e-09
6.3364e-09
6.30772e-09
6.28042e-09
6.25439e-09
6.22956e-09
6.20584e-09
6.18317e-09
6.16149e-09
6.14073e-09
6.12084e-09
6.10176e-09
6.08347e-09
6.0659e-09
6.04902e-09
6.0328e-09
6.0172e-09
6.00219e-09
5.98773e-09
5.9738e-09
5.96038e-09
5.94744e-09
5.93495e-09
5.92289e-09
5.91126e-09
5.90001e-09
5.88915e-09
5.87864e-09
5.86849e-09
5.85866e-09
5.84914e-09
5.83993e-09
5.83101e-09
5.82237e-09
5.814e-09
5.80588e-09
5.798e-09
5.79036e-09
5.78295e-09
5.77576e-09
5.76878e-09
5.762e-09
5.75541e-09
5.74901e-09
5.74279e-09
5.73675e-09
5.73087e-09
5.72515e-09
5.71959e-09
5.71418e-09
5.70892e-09
5.7038e-09
5.69881e-09
5.69395e-09
5.68922e-09
5.68461e-09
5.68013e-09
5.67575e-09
5.67149e-09
5.66734e-09
5.66329e-09
5.65934e-09
5.65549e-09
5.65173e-09
5.64807e-09
5.6445e-09
5.64101e-09
5.63761e-09
5.6343e-09
5.63106e-09
5.6279e-09
5.62482e-09
5.62182e-09
5.61888e-09
5.61602e-09
5.61323e-09
5.61051e-09
5.60785e-09
5.60526e-09
5.60274e-09
5.60028e-09
5.59788e-09
5.59555e-09
5.59327e-09
5.59106e-09
5.58891e-09
5.58682e-09
5.58479e-09
5.58283e-09
5.58092e-09
5.57907e-09
5.57729e-09
5.57557e-09
5.57391e-09
5.57231e-09
5.57078e-09
5.56932e-09
5.56792e-09
5.56659e-09
5.56533e-09
5.56414e-09
5.56303e-09
5.562e-09
5.56104e-09
5.56016e-09
5.55937e-09
5.55867e-09
5.55805e-09
5.55754e-09
5.55711e-09
5.55679e-09
5.55658e-09
5.55647e-09
5.55648e-09
5.55661e-09
5.55687e-09
5.55725e-09
5.55777e-09
5.55843e-09
5.55923e-09
5.56019e-09
5.56131e-09
5.56259e-09
5.56405e-09
5.56569e-09
5.56752e-09
5.56955e-09
5.57178e-09
5.57423e-09
5.5769e-09
5.5798e-09
5.58294e-09
5.58634e-09
5.59e-09
5.59394e-09
5.59816e-09
5.60268e-09
5.60751e-09
5.61266e-09
5.61814e-09
5.62397e-09
5.63017e-09
5.63675e-09
5.64372e-09
5.6511e-09
5.6589e-09
5.66716e-09
5.67587e-09
5.68507e-09
5.69476e-09
5.70499e-09
5.71575e-09
5.7271e-09
5.73902e-09
5.75159e-09
5.76477e-09
5.77868e-09
5.79074e-09
5.80044e-09
5.81034e-09
5.8205e-09
5.83089e-09
5.84152e-09
5.85239e-09
5.86349e-09
5.87483e-09
5.88642e-09
5.89824e-09
5.91032e-09
5.92264e-09
5.93521e-09
5.94804e-09
5.96111e-09
5.97445e-09
5.98804e-09
6.0019e-09
6.01602e-09
6.03042e-09
6.04508e-09
6.06002e-09
6.07524e-09
6.09074e-09
6.10653e-09
6.12262e-09
6.139e-09
6.15569e-09
6.17269e-09
6.19001e-09
6.20765e-09
6.22562e-09
6.24394e-09
6.2626e-09
6.28163e-09
6.30103e-09
6.32082e-09
6.341e-09
6.36159e-09
6.38262e-09
6.4041e-09
6.42604e-09
6.44848e-09
6.47143e-09
6.49493e-09
6.519e-09
6.54369e-09
6.56903e-09
6.59508e-09
6.62187e-09
6.64949e-09
6.67797e-09
6.70745e-09
6.73793e-09
6.7697e-09
6.80257e-09
6.83722e-09
6.87303e-09
6.9115e-09
6.95094e-09
6.99472e-09
7.03875e-09
7.09043e-09
7.14033e-09
7.20464e-09
7.26228e-09
7.34842e-09
7.41709e-09
7.54489e-09
7.63159e-09
7.85447e-09
7.97063e-09
8.50786e-09
9.10921e-09
9.49946e-08
5.18808e-08
4.58252e-08
4.27758e-08
4.0558e-08
3.87984e-08
3.73554e-08
3.61566e-08
3.51474e-08
3.42845e-08
3.35362e-08
3.28786e-08
3.2295e-08
3.17724e-08
3.1301e-08
3.08731e-08
3.04826e-08
3.01245e-08
2.97947e-08
2.94899e-08
2.92072e-08
2.89442e-08
2.8699e-08
2.84698e-08
2.8255e-08
2.80533e-08
2.78636e-08
2.76848e-08
2.75161e-08
2.73566e-08
2.72056e-08
2.70625e-08
2.69267e-08
2.67976e-08
2.66749e-08
2.65579e-08
2.64465e-08
2.63402e-08
2.62386e-08
2.61415e-08
2.60487e-08
2.59598e-08
2.58746e-08
2.57929e-08
2.57146e-08
2.56394e-08
2.55671e-08
2.54976e-08
2.54308e-08
2.53665e-08
2.53046e-08
2.5245e-08
2.51875e-08
2.51321e-08
2.50786e-08
2.5027e-08
2.49772e-08
2.4929e-08
2.48825e-08
2.48376e-08
2.47941e-08
2.4752e-08
2.47112e-08
2.46718e-08
2.46336e-08
2.45966e-08
2.45608e-08
2.4526e-08
2.44923e-08
2.44596e-08
2.44278e-08
2.4397e-08
2.43672e-08
2.43381e-08
2.43099e-08
2.42825e-08
2.42559e-08
2.423e-08
2.42048e-08
2.41804e-08
2.41566e-08
2.41334e-08
2.41109e-08
2.40889e-08
2.40676e-08
2.40468e-08
2.40265e-08
2.40068e-08
2.39876e-08
2.39689e-08
2.39506e-08
2.39329e-08
2.39155e-08
2.38986e-08
2.38821e-08
2.38661e-08
2.38504e-08
2.38351e-08
2.38202e-08
2.38056e-08
2.37914e-08
2.37776e-08
2.3764e-08
2.37508e-08
2.3738e-08
2.37254e-08
2.37132e-08
2.37012e-08
2.36896e-08
2.36782e-08
2.36671e-08
2.36563e-08
2.36457e-08
2.36355e-08
2.36255e-08
2.36157e-08
2.36062e-08
2.3597e-08
2.35881e-08
2.35794e-08
2.35709e-08
2.35628e-08
2.35548e-08
2.35472e-08
2.35398e-08
2.35326e-08
2.35258e-08
2.35192e-08
2.35129e-08
2.35069e-08
2.35011e-08
2.34957e-08
2.34906e-08
2.34857e-08
2.34812e-08
2.34771e-08
2.34733e-08
2.34698e-08
2.34667e-08
2.3464e-08
2.34617e-08
2.34597e-08
2.34583e-08
2.34572e-08
2.34566e-08
2.34565e-08
2.34569e-08
2.34578e-08
2.34593e-08
2.34613e-08
2.34639e-08
2.34672e-08
2.3471e-08
2.34756e-08
2.34808e-08
2.34867e-08
2.34935e-08
2.3501e-08
2.35093e-08
2.35185e-08
2.35285e-08
2.35396e-08
2.35515e-08
2.35645e-08
2.35786e-08
2.35937e-08
2.361e-08
2.36275e-08
2.36462e-08
2.36662e-08
2.36875e-08
2.37103e-08
2.37344e-08
2.37601e-08
2.37874e-08
2.38163e-08
2.38469e-08
2.38793e-08
2.39135e-08
2.39497e-08
2.39878e-08
2.4028e-08
2.40704e-08
2.41151e-08
2.41621e-08
2.42116e-08
2.42637e-08
2.43183e-08
2.4376e-08
2.44259e-08
2.44661e-08
2.45071e-08
2.45492e-08
2.45923e-08
2.46363e-08
2.46813e-08
2.47272e-08
2.47742e-08
2.48221e-08
2.4871e-08
2.4921e-08
2.49719e-08
2.50239e-08
2.50769e-08
2.51309e-08
2.5186e-08
2.52421e-08
2.52993e-08
2.53576e-08
2.5417e-08
2.54774e-08
2.5539e-08
2.56017e-08
2.56656e-08
2.57306e-08
2.57968e-08
2.58642e-08
2.59329e-08
2.60028e-08
2.60739e-08
2.61463e-08
2.62201e-08
2.62952e-08
2.63718e-08
2.64497e-08
2.65291e-08
2.66101e-08
2.66926e-08
2.67768e-08
2.68626e-08
2.69502e-08
2.70396e-08
2.71309e-08
2.72243e-08
2.73197e-08
2.74174e-08
2.75175e-08
2.762e-08
2.77253e-08
2.78334e-08
2.79446e-08
2.80591e-08
2.81774e-08
2.82995e-08
2.84263e-08
2.85573e-08
2.86948e-08
2.88368e-08
2.89883e-08
2.91436e-08
2.93144e-08
2.94865e-08
2.96856e-08
2.98789e-08
3.01226e-08
3.03433e-08
3.06631e-08
3.09216e-08
3.13849e-08
3.1702e-08
3.24818e-08
3.29022e-08
3.45929e-08
3.71163e-08
2.64079e-07
1.57616e-07
1.40044e-07
1.30886e-07
1.24181e-07
1.18851e-07
1.14473e-07
1.10828e-07
1.07754e-07
1.05124e-07
1.02841e-07
1.00833e-07
9.90494e-08
9.74519e-08
9.60102e-08
9.4701e-08
9.35057e-08
9.24093e-08
9.13993e-08
9.04656e-08
8.95995e-08
8.87938e-08
8.80422e-08
8.73394e-08
8.66809e-08
8.60625e-08
8.54808e-08
8.49326e-08
8.44151e-08
8.39259e-08
8.34628e-08
8.30237e-08
8.2607e-08
8.2211e-08
8.18343e-08
8.14755e-08
8.11335e-08
8.08072e-08
8.04955e-08
8.01976e-08
7.99126e-08
7.96397e-08
7.93782e-08
7.91276e-08
7.88871e-08
7.86561e-08
7.84343e-08
7.82211e-08
7.8016e-08
7.78186e-08
7.76285e-08
7.74455e-08
7.7269e-08
7.70988e-08
7.69346e-08
7.67762e-08
7.66232e-08
7.64754e-08
7.63325e-08
7.61944e-08
7.60609e-08
7.59316e-08
7.58066e-08
7.56855e-08
7.55682e-08
7.54546e-08
7.53445e-08
7.52377e-08
7.51342e-08
7.50337e-08
7.49363e-08
7.48417e-08
7.47499e-08
7.46608e-08
7.45742e-08
7.449e-08
7.44083e-08
7.43288e-08
7.42515e-08
7.41763e-08
7.41032e-08
7.40321e-08
7.39629e-08
7.38955e-08
7.383e-08
7.37661e-08
7.37039e-08
7.36433e-08
7.35843e-08
7.35268e-08
7.34708e-08
7.34162e-08
7.33629e-08
7.3311e-08
7.32604e-08
7.3211e-08
7.31629e-08
7.31159e-08
7.30701e-08
7.30254e-08
7.29817e-08
7.29392e-08
7.28977e-08
7.28571e-08
7.28176e-08
7.2779e-08
7.27414e-08
7.27047e-08
7.26688e-08
7.26339e-08
7.25998e-08
7.25666e-08
7.25342e-08
7.25026e-08
7.24719e-08
7.24419e-08
7.24128e-08
7.23844e-08
7.23569e-08
7.23301e-08
7.23042e-08
7.2279e-08
7.22546e-08
7.2231e-08
7.22082e-08
7.21862e-08
7.2165e-08
7.21447e-08
7.21252e-08
7.21065e-08
7.20888e-08
7.20719e-08
7.2056e-08
7.2041e-08
7.2027e-08
7.2014e-08
7.2002e-08
7.19911e-08
7.19813e-08
7.19726e-08
7.19652e-08
7.19589e-08
7.1954e-08
7.19504e-08
7.19481e-08
7.19473e-08
7.1948e-08
7.19503e-08
7.19541e-08
7.19597e-08
7.1967e-08
7.19762e-08
7.19873e-08
7.20004e-08
7.20156e-08
7.20329e-08
7.20525e-08
7.20745e-08
7.20989e-08
7.21259e-08
7.21555e-08
7.2188e-08
7.22233e-08
7.22616e-08
7.23031e-08
7.23479e-08
7.2396e-08
7.24477e-08
7.25031e-08
7.25623e-08
7.26255e-08
7.26929e-08
7.27646e-08
7.28407e-08
7.29216e-08
7.30073e-08
7.3098e-08
7.31941e-08
7.32956e-08
7.34027e-08
7.35159e-08
7.36351e-08
7.37609e-08
7.38932e-08
7.40327e-08
7.41793e-08
7.43337e-08
7.44956e-08
7.46664e-08
7.4814e-08
7.49332e-08
7.50548e-08
7.51794e-08
7.53068e-08
7.5437e-08
7.55701e-08
7.5706e-08
7.58448e-08
7.59865e-08
7.61311e-08
7.62786e-08
7.64291e-08
7.65826e-08
7.6739e-08
7.68985e-08
7.70609e-08
7.72265e-08
7.73951e-08
7.75669e-08
7.77418e-08
7.79198e-08
7.81011e-08
7.82857e-08
7.84735e-08
7.86646e-08
7.88591e-08
7.90571e-08
7.92585e-08
7.94635e-08
7.96721e-08
7.98843e-08
8.01003e-08
8.03202e-08
8.05439e-08