/*--------------------------------*- C++ -*----------------------------------*\
| =========                 |                                                 |
| \\      /  F ield         | OpenFOAM: The Open Source CFD Toolbox           |
|  \\    /   O peration     | Version:  v2006                                 |
|   \\  /    A nd           | Website:  www.openfoam.com                      |
|    \\/     M anipulation  |                                                 |
\*---------------------------------------------------------------------------*/
FoamFile
{
    version     2.0;
    format      ascii;
    class       volScalarField;
    location    "9462";
    object      nut;
}
// * * * * * * * * * * * * * * * * * * * * * * * * * * * * * * * * * * * * * //

dimensions      [0 2 -1 0 0 0 0];


internalField   nonuniform List<scalar> 
184860
(
1.83429e-08
4.23062e-08
1.46813e-07
5.5793e-07
3.31581e-06
6.51125e-05
1.83521e-08
4.23565e-08
1.47061e-07
5.58889e-07
3.323e-06
6.51589e-05
1.83715e-08
4.24641e-08
1.4759e-07
5.60928e-07
3.33805e-06
6.52531e-05
1.84023e-08
4.26366e-08
1.48437e-07
5.64174e-07
3.36164e-06
6.5395e-05
1.84457e-08
4.28822e-08
1.4964e-07
5.68759e-07
3.39434e-06
6.55827e-05
1.85029e-08
4.32098e-08
1.51239e-07
5.74817e-07
3.43663e-06
6.58121e-05
1.8575e-08
4.36285e-08
1.53276e-07
5.82479e-07
3.48882e-06
6.60767e-05
1.86632e-08
4.41479e-08
1.55792e-07
5.91872e-07
3.55099e-06
6.63676e-05
1.87687e-08
4.4778e-08
1.58829e-07
6.03108e-07
3.62295e-06
6.66733e-05
1.88922e-08
4.55286e-08
1.62425e-07
6.16276e-07
3.70407e-06
6.69793e-05
1.90348e-08
4.64093e-08
1.66612e-07
6.31432e-07
3.79326e-06
6.72689e-05
1.91968e-08
4.74288e-08
1.71413e-07
6.48579e-07
3.88884e-06
6.7522e-05
1.93786e-08
4.85946e-08
1.76835e-07
6.67649e-07
3.98838e-06
6.77161e-05
1.95799e-08
4.99119e-08
1.82864e-07
6.88478e-07
4.08869e-06
6.78254e-05
1.97999e-08
5.13823e-08
1.89457e-07
7.1078e-07
4.18566e-06
6.78211e-05
2.00373e-08
5.3003e-08
1.96529e-07
7.3411e-07
4.2743e-06
6.7672e-05
2.02897e-08
5.47648e-08
2.03945e-07
7.57837e-07
4.34869e-06
6.73425e-05
2.05538e-08
5.66501e-08
2.11506e-07
7.8111e-07
4.40216e-06
6.67956e-05
2.08251e-08
5.86311e-08
2.18937e-07
8.02836e-07
4.42741e-06
6.59912e-05
2.10977e-08
6.06677e-08
2.25881e-07
8.21671e-07
4.41709e-06
6.48876e-05
2.13643e-08
6.27057e-08
2.31892e-07
8.3604e-07
4.36389e-06
6.34413e-05
2.16159e-08
6.46759e-08
2.36445e-07
8.44182e-07
4.26141e-06
6.16088e-05
2.18421e-08
6.64953e-08
2.38945e-07
8.44253e-07
4.10481e-06
5.93479e-05
2.2031e-08
6.80612e-08
2.38811e-07
8.34511e-07
3.89155e-06
5.66199e-05
2.21697e-08
6.92394e-08
2.35539e-07
8.13378e-07
3.62221e-06
5.33926e-05
2.22449e-08
6.98841e-08
2.28762e-07
7.79895e-07
3.3011e-06
4.96455e-05
2.22438e-08
6.9849e-08
2.18324e-07
7.33867e-07
2.93668e-06
4.53756e-05
2.21551e-08
6.90058e-08
2.0435e-07
6.76119e-07
2.54148e-06
4.06062e-05
2.19701e-08
6.72548e-08
1.8729e-07
6.08457e-07
2.13191e-06
3.53978e-05
2.16846e-08
6.456e-08
1.67921e-07
5.33091e-07
1.72823e-06
2.98609e-05
2.12996e-08
6.09581e-08
1.47235e-07
4.53308e-07
1.35044e-06
2.4166e-05
2.08229e-08
5.65711e-08
1.26231e-07
3.73402e-07
1.01568e-06
1.85455e-05
2.02686e-08
5.16016e-08
1.05931e-07
2.97726e-07
7.35668e-07
1.33155e-05
1.96573e-08
4.63123e-08
8.7236e-08
2.30024e-07
5.15207e-07
8.82983e-06
1.90144e-08
4.09926e-08
7.08128e-08
1.72841e-07
3.52118e-07
5.35228e-06
1.83682e-08
3.5918e-08
5.70214e-08
1.2722e-07
2.3882e-07
2.96308e-06
1.77468e-08
3.13134e-08
4.59165e-08
9.27986e-08
1.62559e-07
1.50887e-06
1.71755e-08
2.73303e-08
3.7307e-08
6.81537e-08
1.11159e-07
7.15447e-07
1.66742e-08
2.40403e-08
3.08488e-08
5.12875e-08
7.69073e-08
3.35812e-07
1.62554e-08
2.1446e-08
2.61385e-08
3.96882e-08
5.45071e-08
1.63552e-07
1.59234e-08
1.95013e-08
2.27411e-08
3.16956e-08
4.01876e-08
8.71683e-08
1.56746e-08
1.81157e-08
2.03167e-08
2.62063e-08
3.12242e-08
5.23035e-08
1.54994e-08
1.71283e-08
1.86193e-08
2.24823e-08
2.54635e-08
3.53501e-08
1.53841e-08
1.64349e-08
1.74359e-08
1.99796e-08
2.17262e-08
2.66155e-08
1.53138e-08
1.59621e-08
1.66206e-08
1.82979e-08
1.93243e-08
2.18927e-08
1.52751e-08
1.56533e-08
1.60739e-08
1.71639e-08
1.77739e-08
1.91643e-08
1.52572e-08
1.54624e-08
1.57218e-08
1.64037e-08
1.67744e-08
1.75343e-08
1.52491e-08
1.53515e-08
1.55052e-08
1.59088e-08
1.61415e-08
1.65719e-08
1.5245e-08
1.52928e-08
1.53776e-08
1.56042e-08
1.57434e-08
1.59922e-08
1.52429e-08
1.52646e-08
1.53074e-08
1.54284e-08
1.55045e-08
1.56701e-08
1.5242e-08
1.52518e-08
1.52718e-08
1.53327e-08
1.53726e-08
1.54882e-08
1.52418e-08
1.52464e-08
1.52553e-08
1.5284e-08
1.53034e-08
1.53664e-08
1.52417e-08
1.52444e-08
1.52484e-08
1.52616e-08
1.52703e-08
1.52992e-08
1.52417e-08
1.52438e-08
1.52457e-08
1.52519e-08
1.52548e-08
1.52672e-08
1.52417e-08
1.52437e-08
1.52446e-08
1.52479e-08
1.52487e-08
1.52521e-08
1.52417e-08
1.52437e-08
1.52443e-08
1.52464e-08
1.5246e-08
1.52453e-08
1.52417e-08
1.52437e-08
1.52442e-08
1.52457e-08
1.52451e-08
1.52434e-08
1.52417e-08
1.52436e-08
1.52441e-08
1.52454e-08
1.52449e-08
1.5243e-08
1.52417e-08
1.52436e-08
1.52441e-08
1.52453e-08
1.52448e-08
1.52429e-08
1.52417e-08
1.52436e-08
1.5244e-08
1.52452e-08
1.52447e-08
1.52427e-08
1.52417e-08
1.52435e-08
1.5244e-08
1.52451e-08
1.52446e-08
1.52426e-08
1.52417e-08
1.52435e-08
1.52439e-08
1.5245e-08
1.52445e-08
1.52425e-08
1.52417e-08
1.52435e-08
1.52439e-08
1.52449e-08
1.52445e-08
1.52424e-08
1.52417e-08
1.52434e-08
1.52438e-08
1.52448e-08
1.52444e-08
1.52423e-08
1.52417e-08
1.52434e-08
1.52437e-08
1.52447e-08
1.52443e-08
1.52422e-08
1.52416e-08
1.52433e-08
1.52437e-08
1.52446e-08
1.52442e-08
1.52421e-08
1.52416e-08
1.52433e-08
1.52436e-08
1.52445e-08
1.52441e-08
1.5242e-08
1.52416e-08
1.52432e-08
1.52435e-08
1.52443e-08
1.5244e-08
1.52418e-08
1.52416e-08
1.52432e-08
1.52435e-08
1.52442e-08
1.52439e-08
1.52417e-08
1.52416e-08
1.52431e-08
1.52434e-08
1.52441e-08
1.52438e-08
1.52416e-08
1.52416e-08
1.5243e-08
1.52433e-08
1.5244e-08
1.52437e-08
1.52414e-08
1.52416e-08
1.5243e-08
1.52432e-08
1.52438e-08
1.52436e-08
1.52413e-08
1.52416e-08
1.52429e-08
1.52431e-08
1.52437e-08
1.52434e-08
1.52411e-08
1.52416e-08
1.52429e-08
1.5243e-08
1.52436e-08
1.52433e-08
1.5241e-08
1.52416e-08
1.52428e-08
1.5243e-08
1.52434e-08
1.52432e-08
1.52409e-08
1.52415e-08
1.52427e-08
1.52429e-08
1.52433e-08
1.5243e-08
1.52408e-08
1.52415e-08
1.52427e-08
1.52428e-08
1.52431e-08
1.52429e-08
1.52407e-08
1.52415e-08
1.52426e-08
1.52427e-08
1.5243e-08
1.52428e-08
1.52406e-08
1.52415e-08
1.52425e-08
1.52426e-08
1.52428e-08
1.52426e-08
1.52405e-08
1.52415e-08
1.52425e-08
1.52425e-08
1.52427e-08
1.52425e-08
1.52404e-08
1.52415e-08
1.52424e-08
1.52424e-08
1.52425e-08
1.52423e-08
1.52404e-08
1.52415e-08
1.52423e-08
1.52423e-08
1.52424e-08
1.52421e-08
1.52403e-08
1.52415e-08
1.52422e-08
1.52422e-08
1.52422e-08
1.5242e-08
1.52402e-08
1.52415e-08
1.52422e-08
1.5242e-08
1.5242e-08
1.52417e-08
1.52401e-08
1.52415e-08
1.52421e-08
1.52417e-08
1.52417e-08
1.52414e-08
1.52399e-08
1.52415e-08
1.5242e-08
1.52416e-08
1.52416e-08
1.52413e-08
1.52398e-08
1.52415e-08
1.52419e-08
1.52416e-08
1.52415e-08
1.52411e-08
1.52397e-08
1.52414e-08
1.52419e-08
1.52416e-08
1.52414e-08
1.52409e-08
1.52396e-08
1.52414e-08
1.52418e-08
1.52416e-08
1.52413e-08
1.52407e-08
1.52394e-08
1.52414e-08
1.52418e-08
1.52415e-08
1.52411e-08
1.52404e-08
1.52392e-08
1.52414e-08
1.52417e-08
1.52415e-08
1.5241e-08
1.52403e-08
1.52391e-08
1.52414e-08
1.52416e-08
1.52414e-08
1.5241e-08
1.52402e-08
1.5239e-08
1.52414e-08
1.52416e-08
1.52414e-08
1.52409e-08
1.52402e-08
1.5239e-08
1.52414e-08
1.52415e-08
1.52413e-08
1.52409e-08
1.52401e-08
1.5239e-08
1.52414e-08
1.52414e-08
1.52412e-08
1.52408e-08
1.52401e-08
1.52391e-08
1.52413e-08
1.52413e-08
1.52411e-08
1.52407e-08
1.52399e-08
1.5239e-08
1.52413e-08
1.52411e-08
1.52408e-08
1.52404e-08
1.52396e-08
1.52388e-08
1.52413e-08
1.52411e-08
1.52408e-08
1.52404e-08
1.52396e-08
1.52388e-08
1.52413e-08
1.52413e-08
1.52411e-08
1.52407e-08
1.52399e-08
1.52391e-08
1.52414e-08
1.52414e-08
1.52412e-08
1.52408e-08
1.524e-08
1.52391e-08
1.52414e-08
1.52415e-08
1.52413e-08
1.52409e-08
1.52401e-08
1.52391e-08
1.52414e-08
1.52416e-08
1.52414e-08
1.52409e-08
1.52401e-08
1.52391e-08
1.52414e-08
1.52416e-08
1.52414e-08
1.5241e-08
1.52402e-08
1.52391e-08
1.52414e-08
1.52417e-08
1.52415e-08
1.5241e-08
1.52403e-08
1.52391e-08
1.52414e-08
1.52418e-08
1.52415e-08
1.52411e-08
1.52404e-08
1.52392e-08
1.52414e-08
1.52418e-08
1.52416e-08
1.52413e-08
1.52407e-08
1.52394e-08
1.52414e-08
1.52419e-08
1.52416e-08
1.52414e-08
1.52409e-08
1.52396e-08
1.52415e-08
1.52419e-08
1.52416e-08
1.52415e-08
1.52411e-08
1.52397e-08
1.52415e-08
1.5242e-08
1.52416e-08
1.52416e-08
1.52413e-08
1.52398e-08
1.52415e-08
1.52421e-08
1.52417e-08
1.52417e-08
1.52414e-08
1.52399e-08
1.52415e-08
1.52422e-08
1.5242e-08
1.5242e-08
1.52417e-08
1.52401e-08
1.52415e-08
1.52422e-08
1.52422e-08
1.52422e-08
1.5242e-08
1.52402e-08
1.52415e-08
1.52423e-08
1.52423e-08
1.52424e-08
1.52421e-08
1.52403e-08
1.52415e-08
1.52424e-08
1.52424e-08
1.52425e-08
1.52423e-08
1.52404e-08
1.52415e-08
1.52425e-08
1.52425e-08
1.52427e-08
1.52424e-08
1.52404e-08
1.52415e-08
1.52425e-08
1.52426e-08
1.52428e-08
1.52426e-08
1.52405e-08
1.52415e-08
1.52426e-08
1.52427e-08
1.5243e-08
1.52427e-08
1.52406e-08
1.52415e-08
1.52427e-08
1.52428e-08
1.52431e-08
1.52429e-08
1.52407e-08
1.52415e-08
1.52427e-08
1.52429e-08
1.52433e-08
1.5243e-08
1.52408e-08
1.52416e-08
1.52428e-08
1.52429e-08
1.52434e-08
1.52431e-08
1.52409e-08
1.52416e-08
1.52428e-08
1.5243e-08
1.52435e-08
1.52433e-08
1.5241e-08
1.52416e-08
1.52429e-08
1.52431e-08
1.52437e-08
1.52434e-08
1.52411e-08
1.52416e-08
1.5243e-08
1.52432e-08
1.52438e-08
1.52435e-08
1.52413e-08
1.52416e-08
1.5243e-08
1.52433e-08
1.52439e-08
1.52437e-08
1.52414e-08
1.52416e-08
1.52431e-08
1.52434e-08
1.52441e-08
1.52438e-08
1.52415e-08
1.52416e-08
1.52431e-08
1.52434e-08
1.52442e-08
1.52439e-08
1.52417e-08
1.52416e-08
1.52432e-08
1.52435e-08
1.52443e-08
1.5244e-08
1.52418e-08
1.52416e-08
1.52433e-08
1.52436e-08
1.52444e-08
1.52441e-08
1.52419e-08
1.52416e-08
1.52433e-08
1.52437e-08
1.52446e-08
1.52442e-08
1.52421e-08
1.52417e-08
1.52434e-08
1.52437e-08
1.52447e-08
1.52443e-08
1.52422e-08
1.52417e-08
1.52434e-08
1.52438e-08
1.52448e-08
1.52444e-08
1.52423e-08
1.52417e-08
1.52434e-08
1.52439e-08
1.52449e-08
1.52444e-08
1.52424e-08
1.52417e-08
1.52435e-08
1.52439e-08
1.5245e-08
1.52445e-08
1.52425e-08
1.52417e-08
1.52435e-08
1.5244e-08
1.52451e-08
1.52446e-08
1.52426e-08
1.52417e-08
1.52436e-08
1.5244e-08
1.52451e-08
1.52446e-08
1.52427e-08
1.52417e-08
1.52436e-08
1.52441e-08
1.52452e-08
1.52447e-08
1.52428e-08
1.52417e-08
1.52436e-08
1.52441e-08
1.52453e-08
1.52448e-08
1.52431e-08
1.52417e-08
1.52436e-08
1.52442e-08
1.52455e-08
1.52451e-08
1.52436e-08
1.52417e-08
1.52437e-08
1.52442e-08
1.5246e-08
1.52458e-08
1.52449e-08
1.52417e-08
1.52437e-08
1.52445e-08
1.5247e-08
1.52475e-08
1.5249e-08
1.52417e-08
1.52437e-08
1.52452e-08
1.52497e-08
1.52519e-08
1.52597e-08
1.52418e-08
1.52441e-08
1.5247e-08
1.52565e-08
1.52623e-08
1.52819e-08
1.52418e-08
1.52453e-08
1.52516e-08
1.52721e-08
1.52862e-08
1.5332e-08
1.52419e-08
1.52488e-08
1.52627e-08
1.53066e-08
1.53361e-08
1.54257e-08
1.52424e-08
1.52574e-08
1.52878e-08
1.53773e-08
1.54343e-08
1.55729e-08
1.52438e-08
1.52767e-08
1.53391e-08
1.55098e-08
1.56159e-08
1.58086e-08
1.52467e-08
1.53184e-08
1.54355e-08
1.57444e-08
1.59279e-08
1.62567e-08
1.52525e-08
1.54003e-08
1.56025e-08
1.61354e-08
1.64293e-08
1.70016e-08
1.52644e-08
1.55461e-08
1.58784e-08
1.67479e-08
1.72157e-08
1.82448e-08
1.52913e-08
1.57879e-08
1.63146e-08
1.76661e-08
1.84488e-08
2.03256e-08
1.53433e-08
1.61662e-08
1.69745e-08
1.90226e-08
2.03371e-08
2.38292e-08
1.54323e-08
1.67306e-08
1.79395e-08
2.10269e-08
2.32767e-08
3.00513e-08
1.5572e-08
1.75426e-08
1.93236e-08
2.40015e-08
2.77994e-08
4.18376e-08
1.57766e-08
1.86851e-08
2.12941e-08
2.8398e-08
3.47524e-08
6.51411e-08
1.60578e-08
2.02802e-08
2.40772e-08
3.48241e-08
4.56275e-08
1.14247e-07
1.64228e-08
2.24709e-08
2.7938e-08
4.41314e-08
6.28046e-08
2.23575e-07
1.68719e-08
2.53195e-08
3.32715e-08
5.75996e-08
8.92792e-08
4.67608e-07
1.73975e-08
2.88541e-08
4.04751e-08
7.714e-08
1.29197e-07
9.94357e-07
1.79845e-08
3.30473e-08
4.99267e-08
1.05106e-07
1.88407e-07
2.02199e-06
1.86115e-08
3.77999e-08
6.19129e-08
1.43269e-07
2.75676e-07
3.80197e-06
1.92525e-08
4.29366e-08
7.65377e-08
1.92646e-07
4.0504e-07
6.59136e-06
1.98799e-08
4.82181e-08
9.36425e-08
2.53125e-07
5.86272e-07
1.04383e-05
2.04671e-08
5.33684e-08
1.12769e-07
3.23166e-07
8.25122e-07
1.51867e-05
2.09911e-08
5.81124e-08
1.33181e-07
3.99855e-07
1.12146e-06
2.05335e-05
2.14338e-08
6.22123e-08
1.53952e-07
4.79299e-07
1.46829e-06
2.61343e-05
2.17836e-08
6.54964e-08
1.74086e-07
5.57233e-07
1.8523e-06
3.17302e-05
2.20352e-08
6.78731e-08
1.92638e-07
6.2968e-07
2.25572e-06
3.71139e-05
2.21892e-08
6.93301e-08
2.08672e-07
6.9383e-07
2.65883e-06
4.21385e-05
2.22511e-08
6.99226e-08
2.21526e-07
7.47788e-07
3.04254e-06
4.67126e-05
2.22302e-08
6.97573e-08
2.30856e-07
7.89939e-07
3.3923e-06
5.07889e-05
2.21379e-08
6.89649e-08
2.36622e-07
8.19776e-07
3.69701e-06
5.43528e-05
2.19868e-08
6.76882e-08
2.39036e-07
8.37708e-07
3.94957e-06
5.74124e-05
2.17899e-08
6.60662e-08
2.38493e-07
8.4484e-07
4.14677e-06
5.9991e-05
2.15594e-08
6.42251e-08
2.35497e-07
8.42758e-07
4.28887e-06
6.21215e-05
2.13065e-08
6.22559e-08
2.30628e-07
8.33188e-07
4.3789e-06
6.38423e-05
2.10409e-08
6.02361e-08
2.2445e-07
8.17909e-07
4.42196e-06
6.51948e-05
2.0771e-08
5.82296e-08
2.17456e-07
7.98593e-07
4.42448e-06
6.62212e-05
2.05036e-08
5.6286e-08
2.10059e-07
7.76723e-07
4.39362e-06
6.69631e-05
2.02442e-08
5.44419e-08
2.02591e-07
7.53555e-07
4.33647e-06
6.74608e-05
1.99969e-08
5.27222e-08
1.95303e-07
7.30103e-07
4.26003e-06
6.77524e-05
1.97647e-08
5.11425e-08
1.88377e-07
7.07153e-07
4.17067e-06
6.78736e-05
1.95497e-08
4.97105e-08
1.81935e-07
6.85287e-07
4.07395e-06
6.78581e-05
1.93532e-08
4.84283e-08
1.76052e-07
6.64909e-07
3.97459e-06
6.77359e-05
1.91758e-08
4.72938e-08
1.70767e-07
6.4628e-07
3.87645e-06
6.75342e-05
1.90178e-08
4.63016e-08
1.66089e-07
6.29544e-07
3.78252e-06
6.72778e-05
1.88788e-08
4.54444e-08
1.6201e-07
6.1476e-07
3.69504e-06
6.69881e-05
1.87583e-08
4.47136e-08
1.58507e-07
6.01916e-07
3.6156e-06
6.66841e-05
1.86554e-08
4.40998e-08
1.55547e-07
5.90958e-07
3.5452e-06
6.63821e-05
1.85693e-08
4.35936e-08
1.53094e-07
5.81795e-07
3.48441e-06
6.60954e-05
1.8499e-08
4.31853e-08
1.51108e-07
5.74318e-07
3.43339e-06
6.58353e-05
1.84431e-08
4.28657e-08
1.49548e-07
5.68404e-07
3.39205e-06
6.56102e-05
1.84007e-08
4.26258e-08
1.48373e-07
5.63925e-07
3.36008e-06
6.54261e-05
1.83706e-08
4.24572e-08
1.47546e-07
5.60753e-07
3.33702e-06
6.5287e-05
1.83516e-08
4.2352e-08
1.47028e-07
5.58758e-07
3.32228e-06
6.51948e-05
1.83427e-08
4.23028e-08
1.46785e-07
5.5782e-07
3.31525e-06
6.51493e-05
2.93422e-10
1.65322e-10
1.5102e-10
1.42494e-10
1.36091e-10
1.31029e-10
1.26915e-10
1.23519e-10
1.20669e-10
1.18239e-10
1.16134e-10
1.1429e-10
1.12655e-10
1.11195e-10
1.0988e-10
1.08689e-10
1.07604e-10
1.06611e-10
1.05697e-10
1.04854e-10
1.04072e-10
1.03346e-10
1.02669e-10
1.02037e-10
1.01444e-10
1.00888e-10
1.00365e-10
9.9872e-11
9.94068e-11
9.8967e-11
9.85506e-11
9.81557e-11
9.77809e-11
9.74246e-11
9.70856e-11
9.67626e-11
9.64545e-11
9.61605e-11
9.58795e-11
9.56108e-11
9.53536e-11
9.51072e-11
9.48711e-11
9.46445e-11
9.4427e-11
9.4218e-11
9.40172e-11
9.3824e-11
9.3638e-11
9.3459e-11
9.32865e-11
9.31202e-11
9.29598e-11
9.2805e-11
9.26556e-11
9.25113e-11
9.23719e-11
9.22371e-11
9.21068e-11
9.19807e-11
9.18587e-11
9.17406e-11
9.16262e-11
9.15153e-11
9.14079e-11
9.13037e-11
9.12027e-11
9.11047e-11
9.10097e-11
9.09174e-11
9.08278e-11
9.07407e-11
9.06562e-11
9.0574e-11
9.04942e-11
9.04166e-11
9.03411e-11
9.02676e-11
9.01962e-11
9.01267e-11
9.0059e-11
8.99931e-11
8.9929e-11
8.98665e-11
8.98056e-11
8.97463e-11
8.96886e-11
8.96322e-11
8.95773e-11
8.95238e-11
8.94716e-11
8.94207e-11
8.9371e-11
8.93225e-11
8.92753e-11
8.92291e-11
8.91841e-11
8.91401e-11
8.90972e-11
8.90554e-11
8.90145e-11
8.89745e-11
8.89356e-11
8.88975e-11
8.88603e-11
8.8824e-11
8.87886e-11
8.8754e-11
8.87203e-11
8.86873e-11
8.86551e-11
8.86237e-11
8.85931e-11
8.85633e-11
8.85341e-11
8.85058e-11
8.84781e-11
8.84512e-11
8.8425e-11
8.83996e-11
8.83749e-11
8.83508e-11
8.83276e-11
8.8305e-11
8.82832e-11
8.82621e-11
8.82418e-11
8.82223e-11
8.82035e-11
8.81855e-11
8.81684e-11
8.8152e-11
8.81365e-11
8.81219e-11
8.81082e-11
8.80954e-11
8.80836e-11
8.80727e-11
8.80629e-11
8.80541e-11
8.80465e-11
8.80399e-11
8.80346e-11
8.80305e-11
8.80277e-11
8.80262e-11
8.8026e-11
8.80274e-11
8.80302e-11
8.80347e-11
8.80407e-11
8.80485e-11
8.80581e-11
8.80695e-11
8.80828e-11
8.80982e-11
8.81157e-11
8.81355e-11
8.81575e-11
8.81819e-11
8.82087e-11
8.82382e-11
8.82705e-11
8.83055e-11
8.83435e-11
8.83845e-11
8.84288e-11
8.84763e-11
8.85273e-11
8.8582e-11
8.86404e-11
8.87027e-11
8.8769e-11
8.88396e-11
8.89146e-11
8.89942e-11
8.90786e-11
8.91679e-11
8.92624e-11
8.93623e-11
8.94678e-11
8.95791e-11
8.96966e-11
8.98203e-11
8.99508e-11
9.00879e-11
9.02326e-11
9.03843e-11
9.05446e-11
9.06837e-11
9.07953e-11
9.09092e-11
9.10264e-11
9.11461e-11
9.12687e-11
9.13939e-11
9.15218e-11
9.16525e-11
9.1786e-11
9.19223e-11
9.20614e-11
9.22034e-11
9.23482e-11
9.24959e-11
9.26465e-11
9.28001e-11
9.29565e-11
9.3116e-11
9.32785e-11
9.34441e-11
9.36127e-11
9.37844e-11
9.39594e-11
9.41375e-11
9.43188e-11
9.45035e-11
9.46915e-11
9.48829e-11
9.50778e-11
9.52762e-11
9.54783e-11
9.56841e-11
9.58936e-11
9.61071e-11
9.63245e-11
9.65461e-11
9.67719e-11
9.70021e-11
9.72368e-11
9.74763e-11
9.77207e-11
9.79703e-11
9.82252e-11
9.84859e-11
9.87525e-11
9.90253e-11
9.9305e-11
9.95917e-11
9.98863e-11
1.00189e-10
1.00501e-10
1.00822e-10
1.01154e-10
1.01497e-10
1.01855e-10
1.02225e-10
1.02615e-10
1.03017e-10
1.03451e-10
1.03893e-10
1.04389e-10
1.04882e-10
1.05475e-10
1.06032e-10
1.06783e-10
1.07427e-10
1.08457e-10
1.09247e-10
1.10804e-10
1.11939e-10
1.14687e-10
1.16677e-10
1.24943e-10
1.27455e-10
1.25174e-08
6.72532e-09
5.98844e-09
5.55473e-09
5.23265e-09
4.98071e-09
4.77773e-09
4.61133e-09
4.47252e-09
4.35476e-09
4.25328e-09
4.16469e-09
4.08651e-09
4.01689e-09
3.95443e-09
3.89801e-09
3.84674e-09
3.79992e-09
3.75696e-09
3.71738e-09
3.68079e-09
3.64685e-09
3.61527e-09
3.58581e-09
3.55826e-09
3.53243e-09
3.50818e-09
3.48536e-09
3.46385e-09
3.44354e-09
3.42433e-09
3.40614e-09
3.38889e-09
3.3725e-09
3.35693e-09
3.34211e-09
3.32798e-09
3.31451e-09
3.30165e-09
3.28935e-09
3.2776e-09
3.26635e-09
3.25557e-09
3.24523e-09
3.23532e-09
3.2258e-09
3.21665e-09
3.20786e-09
3.19941e-09
3.19127e-09
3.18343e-09
3.17588e-09
3.1686e-09
3.16158e-09
3.15481e-09
3.14827e-09
3.14196e-09
3.13585e-09
3.12995e-09
3.12425e-09
3.11873e-09
3.11339e-09
3.10822e-09
3.10321e-09
3.09836e-09
3.09365e-09
3.0891e-09
3.08467e-09
3.08039e-09
3.07622e-09
3.07218e-09
3.06826e-09
3.06445e-09
3.06075e-09
3.05715e-09
3.05366e-09
3.05026e-09
3.04696e-09
3.04374e-09
3.04062e-09
3.03757e-09
3.03461e-09
3.03173e-09
3.02892e-09
3.02618e-09
3.02352e-09
3.02092e-09
3.01839e-09
3.01593e-09
3.01352e-09
3.01118e-09
3.00889e-09
3.00667e-09
3.00449e-09
3.00237e-09
3.0003e-09
2.99828e-09
2.99631e-09
2.99439e-09
2.99251e-09
2.99068e-09
2.98889e-09
2.98714e-09
2.98543e-09
2.98377e-09
2.98214e-09
2.98055e-09
2.979e-09
2.97749e-09
2.97602e-09
2.97457e-09
2.97317e-09
2.9718e-09
2.97046e-09
2.96916e-09
2.96788e-09
2.96665e-09
2.96544e-09
2.96427e-09
2.96313e-09
2.96202e-09
2.96094e-09
2.9599e-09
2.95889e-09
2.95791e-09
2.95696e-09
2.95605e-09
2.95517e-09
2.95433e-09
2.95352e-09
2.95275e-09
2.95201e-09
2.95131e-09
2.95065e-09
2.95003e-09
2.94945e-09
2.94891e-09
2.94842e-09
2.94797e-09
2.94756e-09
2.94721e-09
2.9469e-09
2.94665e-09
2.94645e-09
2.9463e-09
2.94622e-09
2.94619e-09
2.94623e-09
2.94633e-09
2.9465e-09
2.94675e-09
2.94707e-09
2.94746e-09
2.94794e-09
2.9485e-09
2.94915e-09
2.94989e-09
2.95073e-09
2.95167e-09
2.95271e-09
2.95386e-09
2.95513e-09
2.95651e-09
2.95801e-09
2.95964e-09
2.96141e-09
2.96331e-09
2.96536e-09
2.96756e-09
2.96992e-09
2.97244e-09
2.97513e-09
2.978e-09
2.98105e-09
2.98429e-09
2.98774e-09
2.99139e-09
2.99526e-09
2.99935e-09
3.00368e-09
3.00825e-09
3.01308e-09
3.01817e-09
3.02354e-09
3.0292e-09
3.03515e-09
3.04144e-09
3.04803e-09
3.05499e-09
3.06102e-09
3.06588e-09
3.07084e-09
3.07594e-09
3.08114e-09
3.08647e-09
3.09192e-09
3.09749e-09
3.10318e-09
3.10899e-09
3.11493e-09
3.12099e-09
3.12717e-09
3.13348e-09
3.13992e-09
3.14648e-09
3.15317e-09
3.15999e-09
3.16695e-09
3.17404e-09
3.18126e-09
3.18861e-09
3.19611e-09
3.20374e-09
3.21151e-09
3.21943e-09
3.22749e-09
3.23569e-09
3.24405e-09
3.25256e-09
3.26123e-09
3.27005e-09
3.27903e-09
3.28818e-09
3.2975e-09
3.307e-09
3.31667e-09
3.32653e-09
3.33658e-09
3.34683e-09
3.35728e-09
3.36795e-09
3.37883e-09
3.38995e-09
3.40131e-09
3.41293e-09
3.42482e-09
3.43699e-09
3.44946e-09
3.46227e-09
3.47541e-09
3.48894e-09
3.50286e-09
3.51725e-09
3.53209e-09
3.54752e-09
3.56346e-09
3.58021e-09
3.59749e-09
3.616e-09
3.63491e-09
3.65593e-09
3.67686e-09
3.70167e-09
3.72515e-09
3.75613e-09
3.78298e-09
3.82473e-09
3.85698e-09
3.91891e-09
3.96324e-09
4.07e-09
4.1433e-09
4.43386e-09
4.69955e-09
9.53971e-08
5.53645e-08
4.92576e-08
4.56314e-08
4.2934e-08
4.08242e-08
3.91241e-08
3.77298e-08
3.65661e-08
3.55788e-08
3.4728e-08
3.39852e-08
3.33297e-08
3.2746e-08
3.22223e-08
3.17492e-08
3.13194e-08
3.09269e-08
3.05668e-08
3.02351e-08
2.99285e-08
2.9644e-08
2.93793e-08
2.91325e-08
2.89016e-08
2.86853e-08
2.84821e-08
2.8291e-08
2.81108e-08
2.79407e-08
2.77798e-08
2.76274e-08
2.7483e-08
2.73458e-08
2.72154e-08
2.70912e-08
2.6973e-08
2.68602e-08
2.67525e-08
2.66496e-08
2.65512e-08
2.6457e-08
2.63668e-08
2.62803e-08
2.61973e-08
2.61177e-08
2.60411e-08
2.59676e-08
2.58968e-08
2.58287e-08
2.57632e-08
2.57e-08
2.56391e-08
2.55804e-08
2.55237e-08
2.5469e-08
2.54162e-08
2.53651e-08
2.53158e-08
2.5268e-08
2.52219e-08
2.51772e-08
2.5134e-08
2.50921e-08
2.50515e-08
2.50122e-08
2.4974e-08
2.49371e-08
2.49012e-08
2.48664e-08
2.48326e-08
2.47998e-08
2.47679e-08
2.4737e-08
2.47069e-08
2.46777e-08
2.46493e-08
2.46217e-08
2.45948e-08
2.45686e-08
2.45432e-08
2.45184e-08
2.44943e-08
2.44708e-08
2.4448e-08
2.44257e-08
2.4404e-08
2.43829e-08
2.43622e-08
2.43421e-08
2.43226e-08
2.43034e-08
2.42848e-08
2.42666e-08
2.42489e-08
2.42316e-08
2.42147e-08
2.41983e-08
2.41822e-08
2.41665e-08
2.41512e-08
2.41362e-08
2.41216e-08
2.41073e-08
2.40934e-08
2.40798e-08
2.40665e-08
2.40536e-08
2.40409e-08
2.40286e-08
2.40166e-08
2.40048e-08
2.39933e-08
2.39821e-08
2.39712e-08
2.39606e-08
2.39502e-08
2.39402e-08
2.39303e-08
2.39208e-08
2.39115e-08
2.39025e-08
2.38938e-08
2.38853e-08
2.38771e-08
2.38691e-08
2.38615e-08
2.38541e-08
2.3847e-08
2.38402e-08
2.38337e-08
2.38275e-08
2.38216e-08
2.38161e-08
2.38108e-08
2.38059e-08
2.38013e-08
2.37971e-08
2.37932e-08
2.37898e-08
2.37867e-08
2.3784e-08
2.37818e-08
2.378e-08
2.37786e-08
2.37778e-08
2.37774e-08
2.37776e-08
2.37782e-08
2.37795e-08
2.37813e-08
2.37837e-08
2.37868e-08
2.37905e-08
2.37949e-08
2.38001e-08
2.38059e-08
2.38126e-08
2.38201e-08
2.38284e-08
2.38376e-08
2.38477e-08
2.38588e-08
2.38709e-08
2.3884e-08
2.38982e-08
2.39136e-08
2.39301e-08
2.39478e-08
2.39668e-08
2.39872e-08
2.40089e-08
2.4032e-08
2.40566e-08
2.40828e-08
2.41106e-08
2.41401e-08
2.41714e-08
2.42045e-08
2.42394e-08
2.42764e-08
2.43154e-08
2.43565e-08
2.43999e-08
2.44456e-08
2.44937e-08
2.45445e-08
2.45977e-08
2.4654e-08
2.47026e-08
2.47419e-08
2.4782e-08
2.48231e-08
2.48651e-08
2.49081e-08
2.49521e-08
2.4997e-08
2.50429e-08
2.50898e-08
2.51376e-08
2.51865e-08
2.52363e-08
2.52872e-08
2.5339e-08
2.53919e-08
2.54458e-08
2.55007e-08
2.55566e-08
2.56137e-08
2.56717e-08
2.57309e-08
2.57911e-08
2.58524e-08
2.59149e-08
2.59784e-08
2.60431e-08
2.6109e-08
2.6176e-08
2.62442e-08
2.63136e-08
2.63843e-08
2.64562e-08
2.65294e-08
2.66039e-08
2.66798e-08
2.6757e-08
2.68357e-08
2.69158e-08
2.69975e-08
2.70807e-08
2.71655e-08
2.72521e-08
2.73403e-08
2.74305e-08
2.75225e-08
2.76166e-08
2.77128e-08
2.78113e-08
2.79122e-08
2.80156e-08
2.81219e-08
2.82311e-08
2.83436e-08
2.84595e-08
2.85796e-08
2.87034e-08
2.88329e-08
2.89664e-08
2.91083e-08
2.92533e-08
2.94127e-08
2.95719e-08
2.97572e-08
2.99339e-08
3.01607e-08
3.03598e-08
3.06584e-08
3.08912e-08
3.13229e-08
3.16253e-08
3.2344e-08
3.28133e-08
3.44958e-08
3.71753e-08
3.70019e-07
2.34885e-07
2.0988e-07
1.94669e-07
1.83296e-07
1.7438e-07
1.67182e-07
1.61266e-07
1.56322e-07
1.52122e-07
1.485e-07
1.45336e-07
1.42541e-07
1.40051e-07
1.37817e-07
1.35797e-07
1.33962e-07
1.32285e-07
1.30747e-07
1.29329e-07
1.28018e-07
1.26802e-07
1.25671e-07
1.24615e-07
1.23628e-07
1.22702e-07
1.21833e-07
1.21015e-07
1.20244e-07
1.19516e-07
1.18827e-07
1.18175e-07
1.17557e-07
1.1697e-07
1.16411e-07
1.1588e-07
1.15374e-07
1.14891e-07
1.1443e-07
1.13989e-07
1.13568e-07
1.13164e-07
1.12778e-07
1.12408e-07
1.12052e-07
1.11711e-07
1.11383e-07
1.11068e-07
1.10765e-07
1.10473e-07
1.10193e-07
1.09922e-07
1.09661e-07
1.0941e-07
1.09167e-07
1.08932e-07
1.08706e-07
1.08487e-07
1.08276e-07
1.08072e-07
1.07874e-07
1.07682e-07
1.07497e-07
1.07318e-07
1.07144e-07
1.06975e-07
1.06812e-07
1.06653e-07
1.065e-07
1.06351e-07
1.06206e-07
1.06065e-07
1.05929e-07
1.05796e-07
1.05667e-07
1.05542e-07
1.0542e-07
1.05302e-07
1.05187e-07
1.05075e-07
1.04966e-07
1.0486e-07
1.04756e-07
1.04656e-07
1.04558e-07
1.04462e-07
1.04369e-07
1.04279e-07
1.0419e-07
1.04104e-07
1.0402e-07
1.03938e-07
1.03858e-07
1.03781e-07
1.03705e-07
1.0363e-07
1.03558e-07
1.03488e-07
1.03419e-07
1.03351e-07
1.03286e-07
1.03222e-07
1.03159e-07
1.03098e-07
1.03038e-07
1.0298e-07
1.02923e-07
1.02867e-07
1.02813e-07
1.0276e-07
1.02709e-07
1.02658e-07
1.02609e-07
1.02561e-07
1.02514e-07
1.02469e-07
1.02424e-07
1.02381e-07
1.02339e-07
1.02298e-07
1.02258e-07
1.02219e-07
1.02182e-07
1.02145e-07
1.0211e-07
1.02076e-07
1.02043e-07
1.02011e-07
1.01981e-07
1.01951e-07
1.01923e-07
1.01896e-07
1.01871e-07
1.01847e-07
1.01824e-07
1.01803e-07
1.01783e-07
1.01764e-07
1.01747e-07
1.01732e-07
1.01718e-07
1.01706e-07
1.01696e-07
1.01688e-07
1.01682e-07
1.01677e-07
1.01675e-07
1.01675e-07
1.01677e-07
1.01681e-07
1.01688e-07
1.01697e-07
1.01709e-07
1.01724e-07
1.01742e-07
1.01762e-07
1.01786e-07
1.01813e-07
1.01844e-07
1.01878e-07
1.01915e-07
1.01957e-07
1.02002e-07
1.02052e-07
1.02105e-07
1.02164e-07
1.02227e-07
1.02295e-07
1.02368e-07
1.02446e-07
1.0253e-07
1.02619e-07
1.02715e-07
1.02817e-07
1.02925e-07
1.03039e-07
1.03161e-07
1.0329e-07
1.03427e-07
1.03571e-07
1.03724e-07
1.03885e-07
1.04055e-07
1.04234e-07
1.04422e-07
1.04621e-07
1.0483e-07
1.0505e-07
1.05282e-07
1.05483e-07
1.05644e-07
1.0581e-07
1.05979e-07
1.06153e-07
1.0633e-07
1.06511e-07
1.06696e-07
1.06885e-07
1.07078e-07
1.07275e-07
1.07476e-07
1.07681e-07
1.0789e-07
1.08103e-07
1.0832e-07
1.08542e-07
1.08767e-07
1.08997e-07
1.09231e-07
1.09469e-07
1.09712e-07
1.09959e-07
1.1021e-07
1.10465e-07
1.10726e-07
1.1099e-07
1.1126e-07
1.11533e-07
1.11812e-07
1.12095e-07
1.12384e-07
1.12677e-07
1.12975e-07
1.13278e-07
1.13587e-07
1.13901e-07
1.14221e-07
1.14546e-07
1.14877e-07
1.15214e-07
1.15557e-07
1.15907e-07
1.16264e-07
1.16627e-07
1.16998e-07
1.17376e-07
1.17762e-07
1.18157e-07
1.18561e-07
1.18974e-07
1.19397e-07
1.19832e-07
1.20278e-07
1.20736e-07
1.21209e-07
1.21697e-07
1.22203e-07
1.22724e-07
1.23274e-07
1.23835e-07
1.24444e-07
1.25054e-07
1.25749e-07
1.26417e-07
1.27247e-07
1.27986e-07
1.29045e-07
1.29882e-07
1.31363e-07
1.32371e-07
1.34721e-07
1.36183e-07
1.4053e-07
1.51642e-07
1.01018e-06
7.04235e-07
6.34984e-07
5.90594e-07
5.57059e-07
5.30626e-07
5.09199e-07
4.9153e-07
4.76723e-07
4.64121e-07
4.53235e-07
4.43711e-07
4.35292e-07
4.27783e-07
4.21039e-07
4.14939e-07
4.09393e-07
4.04324e-07
3.99669e-07
3.95379e-07
3.91411e-07
3.87727e-07
3.84299e-07
3.811e-07
3.78107e-07
3.75302e-07
3.72666e-07
3.70185e-07
3.67846e-07
3.65638e-07
3.63548e-07
3.61569e-07
3.59692e-07
3.57909e-07
3.56214e-07
3.54601e-07
3.53063e-07
3.51596e-07
3.50196e-07
3.48857e-07
3.47577e-07
3.46352e-07
3.45178e-07
3.44052e-07
3.42972e-07
3.41936e-07
3.4094e-07
3.39982e-07
3.39061e-07
3.38174e-07
3.3732e-07
3.36498e-07
3.35705e-07
3.3494e-07
3.34202e-07
3.33489e-07
3.32801e-07
3.32136e-07
3.31493e-07
3.30871e-07
3.3027e-07
3.29688e-07
3.29124e-07
3.28578e-07
3.28049e-07
3.27537e-07
3.2704e-07
3.26558e-07
3.26091e-07
3.25637e-07
3.25197e-07
3.24769e-07
3.24354e-07
3.23951e-07
3.23559e-07
3.23178e-07
3.22807e-07
3.22447e-07
3.22097e-07
3.21756e-07
3.21424e-07
3.21101e-07
3.20787e-07
3.20481e-07
3.20183e-07
3.19892e-07
3.19609e-07
3.19334e-07
3.19065e-07
3.18803e-07
3.18547e-07
3.18298e-07
3.18055e-07
3.17818e-07
3.17587e-07
3.17361e-07
3.17141e-07
3.16926e-07
3.16717e-07
3.16512e-07
3.16312e-07
3.16117e-07
3.15926e-07
3.1574e-07
3.15559e-07
3.15381e-07
3.15208e-07
3.15039e-07
3.14874e-07
3.14713e-07
3.14556e-07
3.14402e-07
3.14252e-07
3.14106e-07
3.13964e-07
3.13825e-07
3.13689e-07
3.13558e-07
3.13429e-07
3.13304e-07
3.13183e-07
3.13064e-07
3.1295e-07
3.12839e-07
3.12731e-07
3.12627e-07
3.12526e-07
3.12429e-07
3.12335e-07
3.12245e-07
3.12159e-07
3.12077e-07
3.11999e-07
3.11924e-07
3.11854e-07
3.11788e-07
3.11726e-07
3.11669e-07
3.11616e-07
3.11568e-07
3.11525e-07
3.11487e-07
3.11454e-07
3.11427e-07
3.11406e-07
3.1139e-07
3.11381e-07
3.11378e-07
3.11381e-07
3.11392e-07
3.11409e-07
3.11435e-07
3.11468e-07
3.11509e-07
3.11558e-07
3.11617e-07
3.11685e-07
3.11762e-07
3.11849e-07
3.11947e-07
3.12055e-07
3.12175e-07
3.12306e-07
3.1245e-07
3.12607e-07
3.12776e-07
3.1296e-07
3.13157e-07
3.1337e-07
3.13598e-07
3.13842e-07
3.14104e-07
3.14382e-07
3.14679e-07
3.14994e-07
3.15329e-07
3.15685e-07
3.16062e-07
3.1646e-07
3.16882e-07
3.17328e-07
3.17798e-07
3.18294e-07
3.18817e-07
3.19369e-07
3.19948e-07
3.2056e-07
3.21201e-07
3.21878e-07
3.22462e-07
3.22935e-07
3.23418e-07
3.23912e-07
3.24417e-07
3.24933e-07
3.25461e-07
3.26e-07
3.2655e-07
3.27112e-07
3.27685e-07
3.2827e-07
3.28866e-07
3.29474e-07
3.30093e-07
3.30724e-07
3.31367e-07
3.32022e-07
3.32689e-07
3.33368e-07
3.34058e-07
3.34761e-07
3.35476e-07
3.36204e-07
3.36944e-07
3.37696e-07
3.38461e-07
3.39239e-07
3.4003e-07
3.40833e-07
3.41651e-07
3.42481e-07
3.43325e-07