/*--------------------------------*- C++ -*----------------------------------*\
| =========                 |                                                 |
| \\      /  F ield         | OpenFOAM: The Open Source CFD Toolbox           |
|  \\    /   O peration     | Version:  v2006                                 |
|   \\  /    A nd           | Website:  www.openfoam.com                      |
|    \\/     M anipulation  |                                                 |
\*---------------------------------------------------------------------------*/
FoamFile
{
    version     2.0;
    format      ascii;
    class       volScalarField;
    location    "11000";
    object      nut;
}
// * * * * * * * * * * * * * * * * * * * * * * * * * * * * * * * * * * * * * //

dimensions      [0 2 -1 0 0 0 0];


internalField   nonuniform List<scalar> 
184860
(
1.90658e-08
5.22727e-08
2.25996e-07
1.08027e-06
7.35473e-06
0.000112148
1.9092e-08
5.24393e-08
2.26983e-07
1.08465e-06
7.38663e-06
0.00011226
1.91467e-08
5.27931e-08
2.29079e-07
1.09388e-06
7.45252e-06
0.000112475
1.92323e-08
5.33563e-08
2.32416e-07
1.10844e-06
7.55403e-06
0.00011278
1.93509e-08
5.41526e-08
2.37134e-07
1.12881e-06
7.69216e-06
0.000113154
1.95047e-08
5.52072e-08
2.43381e-07
1.15546e-06
7.86709e-06
0.000113575
1.96955e-08
5.6546e-08
2.51305e-07
1.18883e-06
8.07791e-06
0.000114015
1.99248e-08
5.81955e-08
2.6105e-07
1.22925e-06
8.32233e-06
0.000114445
2.01936e-08
6.01811e-08
2.72745e-07
1.27695e-06
8.59636e-06
0.000114829
2.05021e-08
6.25261e-08
2.86487e-07
1.33194e-06
8.89401e-06
0.00011513
2.08498e-08
6.52489e-08
3.0232e-07
1.39397e-06
9.207e-06
0.000115301
2.12349e-08
6.836e-08
3.20206e-07
1.46238e-06
9.52456e-06
0.000115294
2.16541e-08
7.18574e-08
3.39983e-07
1.53603e-06
9.8333e-06
0.000115053
2.21023e-08
7.57216e-08
3.61329e-07
1.61315e-06
1.01172e-05
0.000114514
2.25722e-08
7.9909e-08
3.83705e-07
1.69125e-06
1.03581e-05
0.000113608
2.30538e-08
8.43446e-08
4.06317e-07
1.76701e-06
1.05355e-05
0.00011228
2.35341e-08
8.89158e-08
4.28076e-07
1.83626e-06
1.06279e-05
0.000110472
2.39971e-08
9.34663e-08
4.4759e-07
1.894e-06
1.06142e-05
0.000108123
2.44236e-08
9.77947e-08
4.63189e-07
1.93459e-06
1.04736e-05
0.000105169
2.47913e-08
1.01659e-07
4.72988e-07
1.95202e-06
1.01886e-05
0.000101543
2.50759e-08
1.04787e-07
4.75095e-07
1.94049e-06
9.74616e-06
9.71797e-05
2.52519e-08
1.06845e-07
4.67934e-07
1.89494e-06
9.14051e-06
9.20139e-05
2.52948e-08
1.07462e-07
4.50532e-07
1.81181e-06
8.37523e-06
8.5989e-05
2.51831e-08
1.06308e-07
4.22733e-07
1.69035e-06
7.46565e-06
7.90626e-05
2.4901e-08
1.03132e-07
3.8541e-07
1.53316e-06
6.44048e-06
7.12193e-05
2.44416e-08
9.78402e-08
3.40554e-07
1.3462e-06
5.34396e-06
6.24897e-05
2.38091e-08
9.05501e-08
2.91157e-07
1.1371e-06
4.23806e-06
5.29789e-05
2.30203e-08
8.161e-08
2.40373e-07
9.18462e-07
3.19066e-06
4.29026e-05
2.21054e-08
7.15829e-08
1.91393e-07
7.05659e-07
2.26556e-06
3.26331e-05
2.11061e-08
6.11717e-08
1.47124e-07
5.13697e-07
1.51034e-06
2.27971e-05
2.00724e-08
5.11037e-08
1.09682e-07
3.54178e-07
9.46201e-07
1.42525e-05
1.90582e-08
4.20052e-08
8.00722e-08
2.328e-07
5.64624e-07
7.78991e-06
1.81152e-08
3.43058e-08
5.8172e-08
1.48676e-07
3.33489e-07
3.72548e-06
1.72876e-08
2.82039e-08
4.30209e-08
9.60095e-08
1.99086e-07
1.61823e-06
1.66068e-08
2.37015e-08
3.32791e-08
6.48609e-08
1.20338e-07
6.76974e-07
1.60875e-08
2.069e-08
2.68994e-08
4.58061e-08
7.42835e-08
2.8178e-07
1.57259e-08
1.86892e-08
2.26093e-08
3.38209e-08
4.79548e-08
1.23756e-07
1.55005e-08
1.73277e-08
1.97514e-08
2.63114e-08
3.37534e-08
6.29487e-08
1.53768e-08
1.64187e-08
1.80103e-08
2.19674e-08
2.6227e-08
3.88817e-08
1.53155e-08
1.58864e-08
1.69297e-08
1.93778e-08
2.17714e-08
2.76889e-08
1.5284e-08
1.56016e-08
1.62229e-08
1.76914e-08
1.89672e-08
2.18049e-08
1.52641e-08
1.54345e-08
1.57703e-08
1.66233e-08
1.7389e-08
1.88973e-08
1.52533e-08
1.53529e-08
1.55562e-08
1.60783e-08
1.65521e-08
1.74241e-08
1.52511e-08
1.53148e-08
1.54334e-08
1.5733e-08
1.59865e-08
1.64617e-08
1.52476e-08
1.52834e-08
1.5343e-08
1.54904e-08
1.56515e-08
1.59167e-08
1.52441e-08
1.52657e-08
1.53072e-08
1.53989e-08
1.5497e-08
1.56572e-08
1.52438e-08
1.52576e-08
1.5281e-08
1.53329e-08
1.53755e-08
1.54523e-08
1.52426e-08
1.52487e-08
1.5261e-08
1.52895e-08
1.53205e-08
1.53709e-08
1.52418e-08
1.52453e-08
1.52525e-08
1.52682e-08
1.52827e-08
1.53217e-08
1.52415e-08
1.52431e-08
1.52463e-08
1.52541e-08
1.52624e-08
1.5287e-08
1.52416e-08
1.52431e-08
1.52448e-08
1.52486e-08
1.52516e-08
1.52627e-08
1.52416e-08
1.52429e-08
1.52433e-08
1.52445e-08
1.52465e-08
1.52527e-08
1.52416e-08
1.52428e-08
1.5243e-08
1.52436e-08
1.52442e-08
1.52462e-08
1.52416e-08
1.52429e-08
1.52432e-08
1.5244e-08
1.52438e-08
1.52434e-08
1.52416e-08
1.52429e-08
1.52432e-08
1.52441e-08
1.52439e-08
1.52436e-08
1.52416e-08
1.52429e-08
1.52432e-08
1.5244e-08
1.52439e-08
1.52438e-08
1.52416e-08
1.52428e-08
1.52431e-08
1.52439e-08
1.52439e-08
1.52437e-08
1.52416e-08
1.52428e-08
1.52431e-08
1.52438e-08
1.52438e-08
1.52437e-08
1.52416e-08
1.52428e-08
1.52431e-08
1.52437e-08
1.52437e-08
1.52436e-08
1.52416e-08
1.52428e-08
1.5243e-08
1.52437e-08
1.52437e-08
1.52435e-08
1.52416e-08
1.52427e-08
1.5243e-08
1.52436e-08
1.52436e-08
1.52435e-08
1.52416e-08
1.52427e-08
1.52429e-08
1.52436e-08
1.52436e-08
1.52434e-08
1.52416e-08
1.52427e-08
1.52429e-08
1.52435e-08
1.52435e-08
1.52433e-08
1.52415e-08
1.52426e-08
1.52429e-08
1.52434e-08
1.52434e-08
1.52433e-08
1.52415e-08
1.52426e-08
1.52428e-08
1.52434e-08
1.52434e-08
1.52432e-08
1.52415e-08
1.52426e-08
1.52428e-08
1.52433e-08
1.52433e-08
1.52431e-08
1.52415e-08
1.52425e-08
1.52427e-08
1.52432e-08
1.52432e-08
1.5243e-08
1.52415e-08
1.52425e-08
1.52427e-08
1.52431e-08
1.52432e-08
1.5243e-08
1.52415e-08
1.52425e-08
1.52426e-08
1.5243e-08
1.52431e-08
1.52429e-08
1.52415e-08
1.52424e-08
1.52426e-08
1.5243e-08
1.5243e-08
1.52428e-08
1.52415e-08
1.52424e-08
1.52425e-08
1.52429e-08
1.52429e-08
1.52427e-08
1.52415e-08
1.52424e-08
1.52425e-08
1.52428e-08
1.52428e-08
1.52426e-08
1.52414e-08
1.52423e-08
1.52424e-08
1.52427e-08
1.52428e-08
1.52425e-08
1.52414e-08
1.52423e-08
1.52424e-08
1.52426e-08
1.52427e-08
1.52424e-08
1.52414e-08
1.52422e-08
1.52423e-08
1.52425e-08
1.52426e-08
1.52424e-08
1.52414e-08
1.52422e-08
1.52423e-08
1.52425e-08
1.52425e-08
1.52423e-08
1.52414e-08
1.52422e-08
1.52422e-08
1.52424e-08
1.52424e-08
1.52422e-08
1.52414e-08
1.52421e-08
1.52421e-08
1.52423e-08
1.52423e-08
1.52421e-08
1.52414e-08
1.52421e-08
1.52421e-08
1.52422e-08
1.52422e-08
1.5242e-08
1.52414e-08
1.5242e-08
1.5242e-08
1.52421e-08
1.52421e-08
1.52419e-08
1.52414e-08
1.5242e-08
1.5242e-08
1.5242e-08
1.5242e-08
1.52418e-08
1.52414e-08
1.5242e-08
1.52419e-08
1.5242e-08
1.5242e-08
1.52417e-08
1.52415e-08
1.52419e-08
1.52418e-08
1.52418e-08
1.52418e-08
1.52416e-08
1.52414e-08
1.52418e-08
1.52417e-08
1.52417e-08
1.52417e-08
1.52414e-08
1.52414e-08
1.52418e-08
1.52416e-08
1.52416e-08
1.52416e-08
1.52413e-08
1.52414e-08
1.52418e-08
1.52416e-08
1.52416e-08
1.52415e-08
1.52413e-08
1.52414e-08
1.52417e-08
1.52416e-08
1.52415e-08
1.52415e-08
1.52412e-08
1.52414e-08
1.52417e-08
1.52416e-08
1.52415e-08
1.52414e-08
1.52411e-08
1.52414e-08
1.52417e-08
1.52416e-08
1.52414e-08
1.52414e-08
1.5241e-08
1.52414e-08
1.52416e-08
1.52416e-08
1.52413e-08
1.52413e-08
1.52408e-08
1.52414e-08
1.52416e-08
1.52415e-08
1.52413e-08
1.52412e-08
1.52407e-08
1.52414e-08
1.52415e-08
1.52415e-08
1.52412e-08
1.52411e-08
1.52407e-08
1.52414e-08
1.52415e-08
1.52414e-08
1.52412e-08
1.5241e-08
1.52406e-08
1.52414e-08
1.52415e-08
1.52414e-08
1.52412e-08
1.52409e-08
1.52404e-08
1.52414e-08
1.52414e-08
1.52413e-08
1.52412e-08
1.52409e-08
1.52404e-08
1.52414e-08
1.52414e-08
1.52413e-08
1.52411e-08
1.52408e-08
1.52404e-08
1.52413e-08
1.52413e-08
1.52412e-08
1.5241e-08
1.52407e-08
1.52403e-08
1.52413e-08
1.52413e-08
1.52412e-08
1.5241e-08
1.52407e-08
1.52403e-08
1.52414e-08
1.52414e-08
1.52413e-08
1.52411e-08
1.52408e-08
1.52404e-08
1.52414e-08
1.52414e-08
1.52413e-08
1.52412e-08
1.52408e-08
1.52405e-08
1.52414e-08
1.52415e-08
1.52414e-08
1.52412e-08
1.52409e-08
1.52405e-08
1.52414e-08
1.52415e-08
1.52414e-08
1.52412e-08
1.5241e-08
1.52406e-08
1.52414e-08
1.52415e-08
1.52415e-08
1.52412e-08
1.52411e-08
1.52407e-08
1.52414e-08
1.52416e-08
1.52415e-08
1.52413e-08
1.52412e-08
1.52407e-08
1.52414e-08
1.52416e-08
1.52416e-08
1.52413e-08
1.52413e-08
1.52408e-08
1.52414e-08
1.52416e-08
1.52416e-08
1.52414e-08
1.52414e-08
1.5241e-08
1.52414e-08
1.52417e-08
1.52416e-08
1.52415e-08
1.52414e-08
1.52411e-08
1.52414e-08
1.52417e-08
1.52416e-08
1.52415e-08
1.52415e-08
1.52412e-08
1.52414e-08
1.52418e-08
1.52416e-08
1.52416e-08
1.52415e-08
1.52413e-08
1.52414e-08
1.52418e-08
1.52416e-08
1.52416e-08
1.52416e-08
1.52413e-08
1.52414e-08
1.52418e-08
1.52417e-08
1.52417e-08
1.52417e-08
1.52414e-08
1.52414e-08
1.52419e-08
1.52418e-08
1.52418e-08
1.52418e-08
1.52415e-08
1.52414e-08
1.5242e-08
1.52419e-08
1.5242e-08
1.5242e-08
1.52417e-08
1.52414e-08
1.5242e-08
1.5242e-08
1.5242e-08
1.5242e-08
1.52418e-08
1.52414e-08
1.5242e-08
1.5242e-08
1.52421e-08
1.52422e-08
1.52419e-08
1.52415e-08
1.52421e-08
1.52421e-08
1.52422e-08
1.52422e-08
1.5242e-08
1.52415e-08
1.52421e-08
1.52422e-08
1.52423e-08
1.52423e-08
1.52421e-08
1.52415e-08
1.52421e-08
1.52422e-08
1.52424e-08
1.52424e-08
1.52422e-08
1.52415e-08
1.52422e-08
1.52423e-08
1.52425e-08
1.52425e-08
1.52423e-08
1.52415e-08
1.52422e-08
1.52423e-08
1.52425e-08
1.52426e-08
1.52423e-08
1.52415e-08
1.52422e-08
1.52424e-08
1.52426e-08
1.52427e-08
1.52424e-08
1.52415e-08
1.52423e-08
1.52424e-08
1.52427e-08
1.52427e-08
1.52425e-08
1.52415e-08
1.52423e-08
1.52425e-08
1.52428e-08
1.52428e-08
1.52426e-08
1.52415e-08
1.52424e-08
1.52425e-08
1.52429e-08
1.52429e-08
1.52427e-08
1.52415e-08
1.52424e-08
1.52426e-08
1.52429e-08
1.5243e-08
1.52428e-08
1.52415e-08
1.52425e-08
1.52426e-08
1.5243e-08
1.52431e-08
1.52429e-08
1.52415e-08
1.52425e-08
1.52427e-08
1.52431e-08
1.52431e-08
1.52429e-08
1.52415e-08
1.52425e-08
1.52427e-08
1.52432e-08
1.52432e-08
1.5243e-08
1.52415e-08
1.52426e-08
1.52428e-08
1.52433e-08
1.52433e-08
1.52431e-08
1.52415e-08
1.52426e-08
1.52428e-08
1.52433e-08
1.52434e-08
1.52432e-08
1.52415e-08
1.52426e-08
1.52428e-08
1.52434e-08
1.52434e-08
1.52433e-08
1.52416e-08
1.52427e-08
1.52429e-08
1.52435e-08
1.52435e-08
1.52433e-08
1.52416e-08
1.52427e-08
1.52429e-08
1.52436e-08
1.52435e-08
1.52434e-08
1.52416e-08
1.52427e-08
1.5243e-08
1.52436e-08
1.52436e-08
1.52435e-08
1.52416e-08
1.52427e-08
1.5243e-08
1.52437e-08
1.52437e-08
1.52435e-08
1.52416e-08
1.52428e-08
1.5243e-08
1.52437e-08
1.52437e-08
1.52436e-08
1.52416e-08
1.52428e-08
1.52431e-08
1.52438e-08
1.52437e-08
1.52436e-08
1.52416e-08
1.52428e-08
1.52431e-08
1.52438e-08
1.52438e-08
1.52437e-08
1.52416e-08
1.52428e-08
1.52431e-08
1.52437e-08
1.52438e-08
1.52438e-08
1.52416e-08
1.52428e-08
1.52431e-08
1.52437e-08
1.52439e-08
1.52439e-08
1.52416e-08
1.52429e-08
1.52432e-08
1.5244e-08
1.5244e-08
1.52438e-08
1.52416e-08
1.52429e-08
1.52433e-08
1.52442e-08
1.52442e-08
1.52436e-08
1.52416e-08
1.52431e-08
1.52435e-08
1.52445e-08
1.52457e-08
1.52492e-08
1.52417e-08
1.52434e-08
1.52446e-08
1.52474e-08
1.52491e-08
1.5256e-08
1.52417e-08
1.52434e-08
1.52464e-08
1.52527e-08
1.52581e-08
1.52727e-08
1.52417e-08
1.52444e-08
1.52494e-08
1.52597e-08
1.52681e-08
1.5288e-08
1.5242e-08
1.52469e-08
1.52571e-08
1.52778e-08
1.53007e-08
1.53386e-08
1.52433e-08
1.52532e-08
1.52682e-08
1.53002e-08
1.53397e-08
1.54034e-08
1.52442e-08
1.52611e-08
1.52933e-08
1.53676e-08
1.54368e-08
1.55533e-08
1.52456e-08
1.52688e-08
1.53201e-08
1.54504e-08
1.55749e-08
1.57741e-08
1.52497e-08
1.52967e-08
1.53821e-08
1.56101e-08
1.57747e-08
1.60881e-08
1.52521e-08
1.53289e-08
1.54847e-08
1.58955e-08
1.62324e-08
1.68556e-08
1.52558e-08
1.53757e-08
1.56323e-08
1.63074e-08
1.68871e-08
1.79771e-08
1.52715e-08
1.5493e-08
1.59399e-08
1.70345e-08
1.79238e-08
1.98301e-08
1.52954e-08
1.56971e-08
1.64852e-08
1.83516e-08
2.00121e-08
2.38594e-08
1.53363e-08
1.60525e-08
1.73172e-08
2.03524e-08
2.33921e-08
3.14068e-08
1.54184e-08
1.67323e-08
1.86157e-08
2.35069e-08
2.87702e-08
4.61443e-08
1.55773e-08
1.78005e-08
2.07568e-08
2.89597e-08
3.81494e-08
7.9634e-08
1.58502e-08
1.9368e-08
2.40945e-08
3.7887e-08
5.62813e-08
1.67757e-07
1.62665e-08
2.16756e-08
2.9042e-08
5.1948e-08
8.86112e-08
3.90886e-07
1.68405e-08
2.51812e-08
3.64308e-08
7.43379e-08
1.44108e-07
9.34449e-07
1.75692e-08
3.01948e-08
4.78218e-08
1.11159e-07
2.38195e-07
2.19126e-06
1.84322e-08
3.67916e-08
6.49956e-08
1.73513e-07
3.98326e-07
4.8468e-06
1.93942e-08
4.49088e-08
8.9169e-08
2.6891e-07
6.73079e-07
9.68898e-06
2.04093e-08
5.4278e-08
1.21039e-07
4.01659e-07
1.10732e-06
1.68548e-05
2.14263e-08
6.44135e-08
1.6038e-07
5.70579e-07
1.72578e-06
2.58409e-05
2.23937e-08
7.46656e-08
2.05862e-07
7.68153e-07
2.52771e-06
3.58171e-05
2.3265e-08
8.4325e-08
2.55157e-07
9.81826e-07
3.48401e-06
4.5995e-05
2.40031e-08
9.2742e-08
3.05318e-07
1.19667e-06
4.5428e-06
5.58384e-05
2.45823e-08
9.94267e-08
3.53274e-07
1.39823e-06
5.64011e-06
6.5046e-05
2.49898e-08
1.04106e-07
3.95909e-07
1.57574e-06
6.71107e-06
7.34479e-05
2.52247e-08
1.06721e-07
4.30559e-07
1.72273e-06
7.69864e-06
8.09676e-05
2.5296e-08
1.07411e-07
4.55572e-07
1.83377e-06
8.56508e-06
8.75903e-05
2.52208e-08
1.06439e-07
4.70362e-07
1.90723e-06
9.28579e-06
9.33395e-05
2.50207e-08
1.04141e-07
4.75286e-07
1.94446e-06
9.84871e-06
9.82604e-05
2.47197e-08
1.00873e-07
4.71433e-07
1.94943e-06
1.02526e-05
0.00010241
2.43424e-08
9.69411e-08
4.60427e-07
1.92718e-06
1.05047e-05
0.000105852
2.39121e-08
9.26036e-08
4.44121e-07
1.88342e-06
1.06185e-05
0.000108651
2.34497e-08
8.80881e-08
4.24306e-07
1.82393e-06
1.06119e-05
0.000110869
2.29734e-08
8.35819e-08
4.02554e-07
1.75408e-06
1.0505e-05
0.000112569
2.24982e-08
7.92287e-08
3.80162e-07
1.67857e-06
1.03184e-05
0.000113809
2.2036e-08
7.51317e-08
3.58137e-07
1.60132e-06
1.00729e-05
0.000114645
2.15962e-08
7.13583e-08
3.37211e-07
1.52542e-06
9.78786e-06
0.000115132
2.11856e-08
6.79473e-08
3.17871e-07
1.45317e-06
9.48073e-06
0.000115336
2.08088e-08
6.49153e-08
3.00409e-07
1.38621e-06
9.16667e-06
0.000115319
2.04688e-08
6.22623e-08
2.84964e-07
1.32559e-06
8.85835e-06
0.000115133
2.01673e-08
5.99775e-08
2.71564e-07
1.27188e-06
8.56593e-06
0.000114826
1.99047e-08
5.80424e-08
2.60161e-07
1.22532e-06
8.29722e-06
0.000114439
1.96807e-08
5.64343e-08
2.50658e-07
1.18586e-06
8.05785e-06
0.000114012
1.94943e-08
5.51284e-08
2.42927e-07
1.15329e-06
7.85153e-06
0.000113576
1.9344e-08
5.40992e-08
2.36829e-07
1.12727e-06
7.68042e-06
0.000113161
1.9228e-08
5.33216e-08
2.32221e-07
1.10736e-06
7.54532e-06
0.000112793
1.91444e-08
5.27712e-08
2.2896e-07
1.09313e-06
7.44605e-06
0.000112494
1.90908e-08
5.24253e-08
2.2691e-07
1.08411e-06
7.3816e-06
0.000112283
1.90652e-08
5.22623e-08
2.25943e-07
1.07983e-06
7.35037e-06
0.000112174
3.69872e-09
2.28818e-09
2.01001e-09
1.83838e-09
1.7192e-09
1.6311e-09
1.56297e-09
1.50857e-09
1.464e-09
1.42666e-09
1.3948e-09
1.36719e-09
1.34296e-09
1.32149e-09
1.30229e-09
1.285e-09
1.26931e-09
1.25501e-09
1.24191e-09
1.22985e-09
1.21871e-09
1.20838e-09
1.19877e-09
1.18982e-09
1.18144e-09
1.17359e-09
1.16621e-09
1.15927e-09
1.15272e-09
1.14654e-09
1.14069e-09
1.13514e-09
1.12988e-09
1.12488e-09
1.12012e-09
1.11559e-09
1.11127e-09
1.10715e-09
1.10321e-09
1.09944e-09
1.09584e-09
1.09238e-09
1.08907e-09
1.0859e-09
1.08284e-09
1.07991e-09
1.07709e-09
1.07438e-09
1.07177e-09
1.06926e-09
1.06683e-09
1.0645e-09
1.06224e-09
1.06006e-09
1.05797e-09
1.05594e-09
1.05398e-09
1.05208e-09
1.05024e-09
1.04876e-09
1.04675e-09
1.04507e-09
1.04345e-09
1.04188e-09
1.04036e-09
1.03889e-09
1.03746e-09
1.03607e-09
1.03473e-09
1.03342e-09
1.03215e-09
1.03091e-09
1.02971e-09
1.02854e-09
1.02741e-09
1.0263e-09
1.02523e-09
1.02418e-09
1.02316e-09
1.02217e-09
1.0212e-09
1.02026e-09
1.01935e-09
1.01845e-09
1.01758e-09
1.01673e-09
1.0159e-09
1.0151e-09
1.01431e-09
1.01354e-09
1.01279e-09
1.01206e-09
1.01134e-09
1.01065e-09
1.00996e-09
1.0093e-09
1.00865e-09
1.00801e-09
1.00739e-09
1.00679e-09
1.0062e-09
1.00562e-09
1.00505e-09
1.0045e-09
1.00396e-09
1.00343e-09
1.00292e-09
1.00241e-09
1.00192e-09
1.00144e-09
1.00097e-09
1.00051e-09
1.00006e-09
9.9962e-10
9.99191e-10
9.98776e-10
9.98371e-10
9.97971e-10
9.97583e-10
9.97205e-10
9.96837e-10
9.96479e-10
9.9613e-10
9.95792e-10
9.95463e-10
9.95145e-10
9.94836e-10
9.94538e-10
9.9425e-10
9.93972e-10
9.93705e-10
9.93448e-10
9.93203e-10
9.92969e-10
9.92746e-10
9.92536e-10
9.92338e-10
9.92152e-10
9.91979e-10
9.9182e-10
9.91674e-10
9.91543e-10
9.91427e-10
9.91326e-10
9.91242e-10
9.91174e-10
9.91123e-10
9.91091e-10
9.91078e-10
9.91085e-10
9.91112e-10
9.9116e-10
9.91231e-10
9.91325e-10
9.91443e-10
9.91586e-10
9.91755e-10
9.91951e-10
9.92176e-10
9.92431e-10
9.92716e-10
9.93034e-10
9.93386e-10
9.93773e-10
9.94197e-10
9.94658e-10
9.9516e-10
9.95703e-10
9.96289e-10
9.9692e-10
9.97597e-10
9.98323e-10
9.991e-10
9.99929e-10
1.00081e-09
1.00175e-09
1.00275e-09
1.00382e-09
1.00494e-09
1.00613e-09
1.0074e-09
1.00873e-09
1.01014e-09
1.01163e-09
1.01321e-09
1.01486e-09
1.01661e-09
1.01845e-09
1.02039e-09
1.02207e-09
1.02342e-09
1.02481e-09
1.02623e-09
1.02769e-09
1.02918e-09
1.0307e-09
1.03226e-09
1.03385e-09
1.03547e-09
1.03713e-09
1.03882e-09
1.04055e-09
1.04231e-09
1.04411e-09
1.04594e-09
1.04781e-09
1.04971e-09
1.05166e-09
1.05363e-09
1.05565e-09
1.05769e-09
1.05978e-09
1.0619e-09
1.06406e-09
1.06625e-09
1.06848e-09
1.07074e-09
1.07305e-09
1.07539e-09
1.07779e-09
1.08021e-09
1.08269e-09
1.0852e-09
1.08776e-09
1.09035e-09
1.093e-09
1.09568e-09
1.09841e-09
1.10118e-09
1.10399e-09
1.10685e-09
1.10979e-09
1.11268e-09
1.11592e-09
1.11852e-09
1.12158e-09
1.12493e-09
1.12834e-09
1.13166e-09
1.13506e-09
1.13857e-09
1.14212e-09
1.14573e-09
1.14941e-09
1.15318e-09
1.15705e-09
1.16102e-09
1.1651e-09
1.16936e-09
1.17362e-09
1.17843e-09
1.18265e-09
1.18856e-09
1.19227e-09
1.19999e-09
1.20317e-09
1.21125e-09
1.21921e-09
1.2127e-09
1.25811e-09
1.155e-09
1.4052e-09
8.37132e-10
1.86495e-09
2.38542e-07
1.55642e-07
1.34796e-07
1.2207e-07
1.13259e-07
1.06768e-07
1.01761e-07
9.77728e-08
9.45111e-08
9.17838e-08
8.94603e-08
8.74498e-08
8.56883e-08
8.41289e-08
8.27362e-08
8.1483e-08
8.03477e-08
7.93135e-08
7.83666e-08
7.7496e-08
7.66922e-08
7.59476e-08
7.52557e-08
7.46107e-08
7.4008e-08
7.34434e-08
7.29133e-08
7.24147e-08
7.19447e-08
7.15009e-08
7.10813e-08
7.06838e-08
7.03067e-08
6.99486e-08
6.96081e-08
6.92839e-08
6.89748e-08
6.868e-08
6.83983e-08
6.81291e-08
6.78715e-08
6.76247e-08
6.73883e-08
6.71614e-08
6.69437e-08
6.67345e-08
6.65335e-08
6.63401e-08
6.6154e-08
6.59748e-08
6.5802e-08
6.56354e-08
6.54748e-08
6.53197e-08
6.51703e-08
6.50259e-08
6.48866e-08
6.47515e-08
6.46201e-08
6.45109e-08
6.43717e-08
6.42524e-08
6.41374e-08
6.4026e-08
6.39181e-08
6.38134e-08
6.37118e-08
6.36132e-08
6.35174e-08
6.34244e-08
6.33341e-08
6.32463e-08
6.31611e-08
6.30781e-08
6.29975e-08
6.29191e-08
6.28428e-08
6.27685e-08
6.26962e-08
6.26258e-08
6.25573e-08
6.24905e-08
6.24255e-08
6.23621e-08
6.23003e-08
6.22401e-08
6.21813e-08
6.21241e-08
6.20682e-08
6.20137e-08
6.19605e-08
6.19086e-08
6.18579e-08
6.18085e-08
6.17602e-08
6.1713e-08
6.1667e-08
6.1622e-08
6.1578e-08
6.15351e-08
6.14931e-08
6.14522e-08
6.14121e-08
6.1373e-08
6.13347e-08
6.12973e-08
6.12608e-08
6.12251e-08
6.11902e-08
6.11561e-08
6.11228e-08
6.10902e-08
6.10584e-08
6.10273e-08
6.09969e-08
6.09674e-08
6.09387e-08
6.09104e-08
6.08829e-08
6.08561e-08
6.083e-08
6.08046e-08
6.07799e-08
6.07558e-08
6.07325e-08
6.07099e-08
6.0688e-08
6.06667e-08
6.06463e-08
6.06265e-08
6.06074e-08
6.05892e-08
6.05716e-08
6.05549e-08
6.0539e-08
6.05239e-08
6.05097e-08
6.04963e-08
6.04838e-08
6.04723e-08
6.04617e-08
6.04521e-08
6.04436e-08
6.04361e-08
6.04297e-08
6.04245e-08
6.04205e-08
6.04177e-08
6.04162e-08
6.04161e-08
6.04174e-08
6.04202e-08
6.04245e-08
6.04303e-08
6.04379e-08
6.04471e-08
6.04582e-08
6.04711e-08
6.0486e-08
6.05029e-08
6.05219e-08
6.05431e-08
6.05667e-08
6.05926e-08
6.06211e-08
6.06521e-08
6.06859e-08
6.07225e-08
6.07621e-08
6.08047e-08
6.08505e-08
6.08996e-08
6.09521e-08
6.10083e-08
6.10682e-08
6.11319e-08
6.11998e-08
6.12718e-08
6.13482e-08
6.14292e-08
6.15149e-08
6.16055e-08
6.17014e-08
6.18025e-08
6.19093e-08
6.20218e-08
6.21407e-08
6.22655e-08
6.23973e-08
6.25115e-08
6.26037e-08
6.2698e-08
6.27947e-08
6.28937e-08
6.29949e-08
6.30984e-08
6.32042e-08
6.33122e-08
6.34226e-08
6.35352e-08
6.36502e-08
6.37676e-08
6.38872e-08
6.40093e-08
6.41336e-08
6.42605e-08
6.43897e-08
6.45214e-08
6.46555e-08
6.4792e-08
6.49311e-08
6.50725e-08
6.52164e-08
6.53627e-08
6.55114e-08
6.56628e-08
6.58164e-08
6.59729e-08
6.61316e-08
6.62934e-08
6.64574e-08
6.66247e-08
6.67944e-08
6.69672e-08
6.71428e-08
6.73213e-08
6.75028e-08
6.76869e-08
6.78744e-08
6.80645e-08
6.82574e-08
6.84554e-08
6.86508e-08
6.88656e-08
6.90496e-08
6.92601e-08
6.94763e-08
6.96993e-08
6.9923e-08
7.01498e-08
7.03828e-08
7.06203e-08
7.08623e-08
7.11093e-08
7.13615e-08
7.162e-08
7.18854e-08
7.21574e-08
7.24405e-08
7.27244e-08
7.30395e-08
7.33229e-08
7.37056e-08
7.39572e-08
7.44595e-08
7.46747e-08
7.52254e-08
7.57173e-08
7.55002e-08
7.80741e-08
7.27817e-08
8.57413e-08
5.19608e-08
1.07318e-07
1.77622e-06
1.27237e-06
1.10864e-06
1.00745e-06
9.36851e-07
8.84577e-07
8.44121e-07
8.11794e-07
7.85297e-07
7.63101e-07
7.44163e-07
7.27756e-07
7.13365e-07
7.00614e-07
6.89217e-07
6.78954e-07
6.69652e-07
6.61172e-07
6.53404e-07
6.46259e-07
6.3966e-07
6.33544e-07
6.27859e-07
6.22558e-07
6.17603e-07
6.1296e-07
6.08599e-07
6.04496e-07
6.00628e-07
5.96976e-07
5.9352e-07
5.90247e-07
5.87141e-07
5.84191e-07
5.81386e-07
5.78714e-07
5.76167e-07
5.73736e-07
5.71414e-07
5.69195e-07
5.6707e-07
5.65035e-07
5.63085e-07
5.61214e-07
5.59417e-07
5.57692e-07
5.56033e-07
5.54437e-07
5.52901e-07
5.51422e-07
5.49996e-07
5.48621e-07
5.47295e-07
5.46015e-07
5.44782e-07
5.43589e-07
5.42438e-07
5.41322e-07
5.40235e-07
5.39276e-07
5.38182e-07
5.37199e-07
5.36251e-07
5.35331e-07
5.34439e-07
5.33574e-07
5.32734e-07
5.3192e-07
5.31129e-07
5.3036e-07
5.29614e-07
5.28889e-07
5.28184e-07
5.27499e-07
5.26832e-07
5.26184e-07
5.25553e-07
5.2494e-07
5.24342e-07
5.2376e-07
5.23194e-07
5.22642e-07
5.22104e-07
5.2158e-07
5.21069e-07
5.20571e-07
5.20086e-07
5.19612e-07
5.1915e-07
5.187e-07
5.1826e-07
5.17831e-07
5.17412e-07
5.17003e-07
5.16603e-07
5.16213e-07
5.15833e-07
5.15461e-07
5.15097e-07
5.14742e-07
5.14395e-07
5.14056e-07
5.13725e-07
5.13401e-07
5.13085e-07
5.12775e-07
5.12473e-07
5.12178e-07
5.11889e-07
5.11607e-07
5.11331e-07
5.11062e-07
5.10799e-07
5.10542e-07
5.1029e-07
5.10045e-07
5.09807e-07
5.09573e-07
5.09345e-07
5.09123e-07
5.08907e-07
5.08696e-07
5.08491e-07
5.08292e-07
5.08099e-07
5.07911e-07
5.07729e-07
5.07552e-07
5.07382e-07
5.07218e-07
5.07059e-07
5.06907e-07
5.06761e-07
5.06621e-07
5.06488e-07
5.06362e-07
5.06242e-07
5.0613e-07
5.06025e-07
5.05927e-07
5.05837e-07
5.05756e-07
5.05682e-07
5.05617e-07
5.05561e-07
5.05515e-07
5.05478e-07
5.05451e-07
5.05435e-07
5.05429e-07
5.05435e-07
5.05453e-07
5.05482e-07
5.05525e-07
5.05581e-07
5.05651e-07
5.05735e-07
5.05834e-07
5.05949e-07
5.0608e-07
5.06228e-07
5.06394e-07
5.06578e-07
5.06781e-07
5.07005e-07
5.07249e-07
5.07515e-07
5.07803e-07
5.08115e-07
5.08452e-07
5.08813e-07
5.09201e-07
5.09617e-07
5.10061e-07
5.10536e-07
5.11041e-07
5.11578e-07
5.12149e-07
5.12754e-07
5.13396e-07
5.14075e-07
5.14794e-07
5.15554e-07
5.16355e-07
5.17202e-07
5.18093e-07
5.19034e-07
5.20023e-07
5.21067e-07
5.21971e-07
5.22703e-07
5.2345e-07
5.24215e-07
5.24998e-07
5.25799e-07
5.26618e-07
5.27455e-07
5.28309e-07
5.29182e-07
5.30072e-07
5.30981e-07
5.31908e-07
5.32852e-07
5.33816e-07
5.34797e-07
5.35797e-07
5.36815e-07
5.37853e-07
5.38909e-07
5.39984e-07
5.41079e-07
5.42192e-07
5.43324e-07
5.44475e-07
5.45645e-07
5.46835e-07
5.48042e-07
5.49269e-07
5.50514e-07
5.51781e-07
5.53066e-07
5.54373e-07
5.55701e-07
5.57051e-07
5.58423e-07
5.59816e-07
5.61233e-07
5.6267e-07
5.64131e-07
5.65613e-07
5.67116e-07
5.68651e-07
5.70177e-07
5.71809e-07
5.73317e-07
5.74956e-07
5.76569e-07
5.78257e-07
5.79985e-07
5.81728e-07
5.8351e-07
5.85334e-07
5.87195e-07
5.89092e-07
5.91028e-07
5.93007e-07
5.9503e-07
5.97107e-07
5.99249e-07
6.01418e-07
6.03766e-07
6.05948e-07
6.08751e-07
6.10717e-07
6.14405e-07
6.16039e-07
6.20376e-07
6.23396e-07
6.2423e-07
6.37818e-07
6.1538e-07
6.6869e-07
4.96072e-07
7.18644e-07
6.34904e-06
5.07985e-06
4.49701e-06
4.11284e-06
3.83929e-06
3.63437e-06
3.4746e-06
3.34623e-06
3.24058e-06
3.1518e-06
3.07587e-06
3.00996e-06
2.95205e-06
2.90067e-06
2.85469e-06
2.81325e-06
2.77565e-06
2.74135e-06
2.70991e-06
2.68098e-06
2.65424e-06
2.62944e-06
2.60639e-06
2.58488e-06
2.56476e-06
2.54591e-06
2.5282e-06
2.51153e-06
2.49581e-06
2.48096e-06
2.46692e-06
2.4536e-06
2.44097e-06
2.42897e-06
2.41755e-06
2.40668e-06
2.39631e-06
2.38642e-06
2.37696e-06
2.36792e-06
2.35927e-06
2.35098e-06
2.34303e-06
2.33541e-06
2.32809e-06
2.32106e-06
2.3143e-06
2.30779e-06
2.30153e-06
2.2955e-06
2.28969e-06
2.28408e-06
2.27868e-06
2.27346e-06
2.26843e-06
2.26356e-06
2.25887e-06
2.25431e-06
2.24987e-06
2.24563e-06
2.24149e-06
2.23749e-06
2.23362e-06
2.22987e-06
2.22623e-06
2.2227e-06
2.21927e-06
2.21595e-06
2.21272e-06
2.20958e-06
2.20654e-06
2.20358e-06
2.2007e-06
2.1979e-06
2.19518e-06
2.19253e-06
2.18996e-06
2.18745e-06
2.18501e-06
2.18264e-06
2.18033e-06
2.17807e-06
2.17588e-06
2.17374e-06
2.17165e-06
2.16962e-06
2.16763e-06
2.1657e-06
2.16381e-06
2.16197e-06
2.16018e-06
2.15842e-06
2.15671e-06
2.15504e-06
2.15341e-06
2.15182e-06
2.15026e-06
2.14874e-06
2.14726e-06
2.14581e-06
2.14439e-06
2.143e-06
2.14165e-06
2.14033e-06
2.13903e-06
2.13777e-06
2.13653e-06
2.13533e-06
2.13415e-06
2.13299e-06
2.13187e-06
2.13077e-06
2.12969e-06
2.12864e-06
2.12761e-06
2.1266e-06
2.12563e-06
2.12468e-06
2.12374e-06
2.12284e-06
2.12195e-06
2.12109e-06
2.12025e-06
2.11943e-06
2.11864e-06
2.11787e-06
2.11712e-06
2.1164e-06
2.1157e-06
2.11502e-06
2.11437e-06
2.11374e-06
2.11314e-06
2.11256e-06
2.11201e-06
2.11149e-06
2.11099e-06
2.11053e-06
2.11009e-06
2.10968e-06
2.10931e-06
2.10896e-06
2.10865e-06
2.10837e-06
2.10813e-06
2.10793e-06
2.10776e-06
2.10763e-06
2.10755e-06
2.10751e-06
2.10751e-06
2.10756e-06
2.10766e-06
2.10781e-06
2.10801e-06
2.10826e-06
2.10858e-06
2.10895e-06
2.10938e-06
2.10988e-06
2.11045e-06
2.11108e-06
2.11179e-06
2.11257e-06
2.11344e-06
2.11438e-06
2.11541e-06
2.11653e-06
2.11774e-06
2.11904e-06
2.12045e-06
2.12196e-06
2.12358e-06
2.12531e-06
2.12715e-06
2.12912e-06
2.13121e-06
2.13344e-06
2.1358e-06
2.13831e-06
2.14096e-06
2.14376e-06
2.14672e-06
2.14985e-06
2.15315e-06
2.15663e-06
2.1603e-06
2.16416e-06
2.16823e-06
2.17175e-06
2.1746e-06
2.17752e-06
2.1805e-06
2.18355e-06
2.18667e-06
2.18986e-06
2.19311e-06
2.19644e-06
2.19983e-06
2.20329e-06
2.20683e-06
2.21043e-06
2.2141e-06
2.21784e-06
2.22166e-06
2.22554e-06
2.22949e-06
2.23351e-06
2.2376e-06
2.24177e-06
2.24601e-06
2.25032e-06
2.2547e-06
2.25915e-06
2.26367e-06
2.26827e-06
2.27293e-06
2.27767e-06
2.28248e-06
2.28736e-06
2.29232e-06
2.29735e-06
2.30245e-06
2.30764e-06
2.3129e-06
2.31824e-06
2.32367e-06
2.32917e-06
2.33476e-06
2.34043e-06
2.34617e-06
2.35201e-06
2.35788e-06
2.36395e-06
2.36998e-06
2.37624e-06
2.38232e-06
2.38862e-06
2.39516e-06
2.40175e-06
2.40842e-06
2.41524e-06
2.42221e-06
2.4293e-06
2.43652e-06
2.4439e-06
2.4514e-06
2.45912e-06
2.46696e-06
2.47502e-06
2.48342e-06
2.49156e-06
2.50131e-06
2.50869e-06
2.5214e-06
2.52703e-06
2.5432e-06
2.54943e-06
2.56321e-06
2.58052e-06
2.57585e-06
2.55707e-06
2.44702e-06
2.2936e-06
1.47777e-05
1.34674e-05
1.24179e-05
1.15516e-05
1.08892e-05
1.03731e-05
9.9605e-06
9.62309e-06
9.34177e-06
9.10305e-06
8.89731e-06
8.71762e-06
8.55896e-06
8.41762e-06
8.2907e-06
8.17597e-06
8.07161e-06
7.97621e-06
7.8886e-06
7.80782e-06
7.73306e-06
7.66365e-06
7.59902e-06
7.53867e-06
7.48218e-06
7.42918e-06
7.37935e-06
7.33242e-06
7.28813e-06
7.24627e-06
7.20663e-06
7.16906e-06
7.13338e-06
7.09947e-06
7.0672e-06
7.03645e-06
7.00712e-06
6.97911e-06
6.95235e-06
6.92674e-06
6.90223e-06
6.87874e-06
6.85622e-06
6.8346e-06
6.81384e-06
6.79389e-06
6.77471e-06
6.75625e-06
6.73847e-06
6.72135e-06
6.70484e-06
6.68892e-06
6.67356e-06
6.65873e-06
6.64444e-06
6.63061e-06
6.61727e-06
6.60429e-06
6.59167e-06
6.57851e-06
6.56779e-06
6.55645e-06
6.54545e-06
6.53478e-06
6.52443e-06
6.51438e-06
6.50463e-06
6.49516e-06
6.48597e-06
6.47704e-06
6.46837e-06
6.45994e-06
6.45175e-06
6.44378e-06
6.43603e-06
6.4285e-06
6.42116e-06
6.41402e-06
6.40707e-06
6.4003e-06
6.39371e-06
6.38729e-06
6.38103e-06
6.37493e-06
6.36899e-06
6.36319e-06
6.35754e-06
6.35203e-06
6.34665e-06
6.3414e-06
6.33628e-06
6.33128e-06
6.3264e-06
6.32164e-06
6.31699e-06
6.31245e-06
6.30801e-06
6.30367e-06
6.29944e-06
6.2953e-06
6.29126e-06
6.28731e-06
6.28345e-06
6.27967e-06
6.27598e-06
6.27238e-06
6.26885e-06
6.26541e-06
6.26204e-06
6.25875e-06
6.25553e-06
6.25239e-06
6.24932e-06
6.24632e-06
6.24338e-06
6.24051e-06
6.23772e-06
6.235e-06
6.23234e-06
6.22974e-06
6.22721e-06
6.22474e-06
6.22234e-06
6.22e-06
6.21773e-06
6.21552e-06
6.21338e-06
6.2113e-06
6.20929e-06
6.20735e-06
6.20548e-06
6.20367e-06
6.20194e-06
6.20028e-06
6.19869e-06
6.19717e-06
6.19574e-06
6.19438e-06
6.1931e-06
6.19191e-06
6.1908e-06
6.18979e-06
6.18886e-06
6.18803e-06
6.1873e-06
6.18668e-06
6.18615e-06
6.18574e-06
6.18544e-06
6.18526e-06
6.18521e-06
6.18528e-06
6.18548e-06
6.18583e-06
6.18632e-06
6.18696e-06
6.18776e-06
6.18872e-06
6.18985e-06
6.19116e-06
6.19265e-06
6.19433e-06
6.19622e-06
6.1983e-06
6.20061e-06
6.20313e-06
6.20589e-06
6.20889e-06
6.21215e-06
6.21566e-06
6.21945e-06
6.22353e-06
6.22789e-06
6.23256e-06
6.23755e-06
6.24287e-06
6.24854e-06
6.25456e-06
6.26095e-06
6.26772e-06
6.2749e-06
6.28248e-06
6.29051e-06
6.29897e-06
6.30791e-06
6.31732e-06
6.32726e-06
6.33769e-06
6.3487e-06
6.35819e-06
6.36592e-06
6.37381e-06
6.38186e-06
6.39009e-06
6.39851e-06
6.40711e-06
6.41589e-06
6.42486e-06
6.43401e-06
6.44335e-06
6.45287e-06
6.46258e-06
6.47247e-06
6.48254e-06
6.49279e-06
6.50323e-06
6.51385e-06
6.52465e-06
6.53564e-06
6.54681e-06
6.55817e-06
6.56971e-06
6.58143e-06
6.59335e-06
6.60544e-06
6.61773e-06
6.6302e-06
6.64286e-06
6.6557e-06
6.66872e-06
6.68193e-06
6.69531e-06